 Entering Gaussian System, Link 0=g16
 Input=3bS1.com
 Output=3bS1.log
 Initial command:
 /usr/local/g16/l1.exe "/home/padawan/ingrid/Gau-20711.inp" -scrdir="/home/padawan/ingrid/"
 Entering Link 1 = /usr/local/g16/l1.exe PID=     20713.
  
 Copyright (c) 1988,1990,1992,1993,1995,1998,2003,2009,2016,
            Gaussian, Inc.  All Rights Reserved.
  
 This is part of the Gaussian(R) 16 program.  It is based on
 the Gaussian(R) 09 system (copyright 2009, Gaussian, Inc.),
 the Gaussian(R) 03 system (copyright 2003, Gaussian, Inc.),
 the Gaussian(R) 98 system (copyright 1998, Gaussian, Inc.),
 the Gaussian(R) 94 system (copyright 1995, Gaussian, Inc.),
 the Gaussian 92(TM) system (copyright 1992, Gaussian, Inc.),
 the Gaussian 90(TM) system (copyright 1990, Gaussian, Inc.),
 the Gaussian 88(TM) system (copyright 1988, Gaussian, Inc.),
 the Gaussian 86(TM) system (copyright 1986, Carnegie Mellon
 University), and the Gaussian 82(TM) system (copyright 1983,
 Carnegie Mellon University). Gaussian is a federally registered
 trademark of Gaussian, Inc.
  
 This software contains proprietary and confidential information,
 including trade secrets, belonging to Gaussian, Inc.
  
 This software is provided under written license and may be
 used, copied, transmitted, or stored only in accord with that
 written license.
  
 The following legend is applicable only to US Government
 contracts under FAR:
  
                    RESTRICTED RIGHTS LEGEND
  
 Use, reproduction and disclosure by the US Government is
 subject to restrictions as set forth in subparagraphs (a)
 and (c) of the Commercial Computer Software - Restricted
 Rights clause in FAR 52.227-19.
  
 Gaussian, Inc.
 340 Quinnipiac St., Bldg. 40, Wallingford CT 06492
  
  
 ---------------------------------------------------------------
 Warning -- This program may not be used in any manner that
 competes with the business of Gaussian, Inc. or will provide
 assistance to any competitor of Gaussian, Inc.  The licensee
 of this program is prohibited from giving any competitor of
 Gaussian, Inc. access to this program.  By using this program,
 the user acknowledges that Gaussian, Inc. is engaged in the
 business of creating and licensing software in the field of
 computational chemistry and represents and warrants to the
 licensee that it is not a competitor of Gaussian, Inc. and that
 it will not use this program in any manner prohibited above.
 ---------------------------------------------------------------
  

 Cite this work as:
 Gaussian 16, Revision A.03,
 M. J. Frisch, G. W. Trucks, H. B. Schlegel, G. E. Scuseria, 
 M. A. Robb, J. R. Cheeseman, G. Scalmani, V. Barone, 
 G. A. Petersson, H. Nakatsuji, X. Li, M. Caricato, A. V. Marenich, 
 J. Bloino, B. G. Janesko, R. Gomperts, B. Mennucci, H. P. Hratchian, 
 J. V. Ortiz, A. F. Izmaylov, J. L. Sonnenberg, D. Williams-Young, 
 F. Ding, F. Lipparini, F. Egidi, J. Goings, B. Peng, A. Petrone, 
 T. Henderson, D. Ranasinghe, V. G. Zakrzewski, J. Gao, N. Rega, 
 G. Zheng, W. Liang, M. Hada, M. Ehara, K. Toyota, R. Fukuda, 
 J. Hasegawa, M. Ishida, T. Nakajima, Y. Honda, O. Kitao, H. Nakai, 
 T. Vreven, K. Throssell, J. A. Montgomery, Jr., J. E. Peralta, 
 F. Ogliaro, M. J. Bearpark, J. J. Heyd, E. N. Brothers, K. N. Kudin, 
 V. N. Staroverov, T. A. Keith, R. Kobayashi, J. Normand, 
 K. Raghavachari, A. P. Rendell, J. C. Burant, S. S. Iyengar, 
 J. Tomasi, M. Cossi, J. M. Millam, M. Klene, C. Adamo, R. Cammi, 
 J. W. Ochterski, R. L. Martin, K. Morokuma, O. Farkas, 
 J. B. Foresman, and D. J. Fox, Gaussian, Inc., Wallingford CT, 2016.
 
 ******************************************
 Gaussian 16:  ES64L-G16RevA.03 25-Dec-2016
                25-Jan-2022 
 ******************************************
 %nproc=4
 Will use up to    4 processors via shared memory.
 %MEM=1gb
 %Chk=3bS1.chk
 ------------------------------------------
 #n B3LYP/6-31G(d,p) OPT FREQ TD(nstates=1)
 ------------------------------------------
 1/18=20,19=15,26=3,38=1/1,3;
 2/9=110,12=2,17=6,18=5,40=1/2;
 3/5=1,6=6,7=101,11=9,25=1,30=1,71=1,74=-5/1,2,3,8;
 4//1;
 5/5=2,38=5/2;
 8/6=1,10=2,108=1/1;
 9/15=2,41=1,42=1,70=2/14;
 10/5=4/2;
 6/7=2,8=2,9=2,10=2/1;
 7/12=6,13=5/1,2,3,16;
 1/18=20,19=15,26=3/3(2);
 2/9=110/2;
 99//99;
 2/9=110/2;
 3/5=1,6=6,7=101,11=9,25=1,30=1,71=1,74=-5/1,2,3,8;
 4/5=5,16=3,69=1/1;
 5/5=2,38=5/2;
 8/6=1,10=2,108=1/1;
 9/15=2,41=1,42=1,49=4,70=2/14;
 10/5=4/2;
 7/12=6,13=5/1,2,3,16;
 1/18=20,19=15,26=3/3(-8);
 2/9=110/2;
 6/7=2,8=2,9=2,10=2/1;
 99//99;
 -----
 Title
 -----
 Symbolic Z-matrix:
 Charge =  0 Multiplicity = 1
 6                    -2.17089  -5.02273  -0.00034 
 6                    -0.84504  -4.6905   -0.00035 
 6                    -3.16876  -3.99663   0.00019 
 6                    -0.44361  -3.32497  -0.00002 
 6                    -2.8013   -2.68548   0.00032 
 7                    -1.46828  -2.33877  -0.00008 
 6                     0.78406  -2.69202   0.00028 
 6                     0.54716  -1.29238   0.00027 
 6                    -0.87103  -1.07812  -0.00008 
 1                    -2.47386  -6.06486  -0.00058 
 1                    -0.06983  -5.44936  -0.00057 
 1                    -4.22278  -4.24755   0.00066 
 1                    -3.50084  -1.86233   0.00082 
 1                     1.74739  -3.17822   0.00043 
 6                    -1.45544   0.20065  -0.00047 
 6                     1.45545  -0.20065   0.00049 
 6                     0.87103   1.07812   0.00013 
 6                    -0.54715   1.29239  -0.00019 
 7                     1.46828   2.33878   0.00026 
 6                    -0.78406   2.69202  -0.00009 
 6                     0.44361   3.32498   0.00022 
 6                     2.8013    2.68549  -0.00028 
 6                     3.16876   3.99664  -0.00015 
 6                     0.84504   4.69051   0.0006 
 6                     2.17089   5.02274   0.0005 
 1                     3.50084   1.86235  -0.00086 
 1                     4.22278   4.24757  -0.00073 
 1                    -1.74739   3.17822  -0.00016 
 1                     2.47385   6.06487   0.00078 
 1                     0.06983   5.44936   0.00093 
 6                    -2.85354   0.46516  -0.00098 
 6                     2.85354  -0.46516   0.00092 
 6                     4.02969  -0.77555   0.00101 
 6                     5.45652  -1.14519   0.00013 
 6                    -4.02969   0.77554  -0.00111 
 6                    -5.45652   1.14518  -0.00032 
 6                    -6.31937  -0.12817   0.1625 
 1                    -6.14797  -0.8264   -0.66263 
 1                    -7.38218   0.13679   0.16937 
 1                    -6.0892   -0.6413    1.10111 
 6                    -5.73301   2.1118    1.17605 
 1                    -5.49096   1.64221   2.13373 
 1                    -6.79097   2.39637   1.18785 
 1                    -5.13346   3.022     1.08324 
 6                    -5.80727   1.84137  -1.33711 
 1                    -5.62004   1.17701  -2.18557 
 1                    -5.20749   2.7455   -1.47541 
 1                    -6.86562   2.12469  -1.34673 
 6                     5.80748  -1.84097   1.33709 
 1                     5.62034  -1.17637   2.18538 
 1                     6.86584  -2.12425   1.34664 
 1                     5.20775  -2.74508   1.47574 
 6                     6.31934   0.12811  -0.16321 
 1                     6.14808   0.82659   0.66174 
 1                     6.08901   0.64096  -1.10194 
 1                     7.38215  -0.13685  -0.17017 
 6                     5.73284  -2.11217  -1.17597 
 1                     5.13328  -3.02233  -1.08282 
 1                     6.79079  -2.39677  -1.18784 
 1                     5.49068  -1.64286  -2.13377 
 

 GradGradGradGradGradGradGradGradGradGradGradGradGradGradGradGradGradGrad
 Berny optimization.
 Initialization pass.
                           ----------------------------
                           !    Initial Parameters    !
                           ! (Angstroms and Degrees)  !
 --------------------------                            --------------------------
 ! Name  Definition              Value          Derivative Info.                !
 --------------------------------------------------------------------------------
 ! R1    R(1,2)                  1.3668         estimate D2E/DX2                !
 ! R2    R(1,3)                  1.4313         estimate D2E/DX2                !
 ! R3    R(1,10)                 1.0853         estimate D2E/DX2                !
 ! R4    R(2,4)                  1.4233         estimate D2E/DX2                !
 ! R5    R(2,11)                 1.0848         estimate D2E/DX2                !
 ! R6    R(3,5)                  1.3617         estimate D2E/DX2                !
 ! R7    R(3,12)                 1.0835         estimate D2E/DX2                !
 ! R8    R(4,6)                  1.4222         estimate D2E/DX2                !
 ! R9    R(4,7)                  1.3812         estimate D2E/DX2                !
 ! R10   R(5,6)                  1.3774         estimate D2E/DX2                !
 ! R11   R(5,13)                 1.0802         estimate D2E/DX2                !
 ! R12   R(6,9)                  1.395          estimate D2E/DX2                !
 ! R13   R(7,8)                  1.4195         estimate D2E/DX2                !
 ! R14   R(7,14)                 1.0791         estimate D2E/DX2                !
 ! R15   R(8,9)                  1.4343         estimate D2E/DX2                !
 ! R16   R(8,16)                 1.4202         estimate D2E/DX2                !
 ! R17   R(9,15)                 1.406          estimate D2E/DX2                !
 ! R18   R(15,18)                1.4202         estimate D2E/DX2                !
 ! R19   R(15,31)                1.4229         estimate D2E/DX2                !
 ! R20   R(16,17)                1.406          estimate D2E/DX2                !
 ! R21   R(16,32)                1.4229         estimate D2E/DX2                !
 ! R22   R(17,18)                1.4343         estimate D2E/DX2                !
 ! R23   R(17,19)                1.395          estimate D2E/DX2                !
 ! R24   R(18,20)                1.4195         estimate D2E/DX2                !
 ! R25   R(19,21)                1.4222         estimate D2E/DX2                !
 ! R26   R(19,22)                1.3774         estimate D2E/DX2                !
 ! R27   R(20,21)                1.3812         estimate D2E/DX2                !
 ! R28   R(20,28)                1.0791         estimate D2E/DX2                !
 ! R29   R(21,24)                1.4233         estimate D2E/DX2                !
 ! R30   R(22,23)                1.3617         estimate D2E/DX2                !
 ! R31   R(22,26)                1.0802         estimate D2E/DX2                !
 ! R32   R(23,25)                1.4313         estimate D2E/DX2                !
 ! R33   R(23,27)                1.0835         estimate D2E/DX2                !
 ! R34   R(24,25)                1.3668         estimate D2E/DX2                !
 ! R35   R(24,30)                1.0848         estimate D2E/DX2                !
 ! R36   R(25,29)                1.0853         estimate D2E/DX2                !
 ! R37   R(31,35)                1.2164         estimate D2E/DX2                !
 ! R38   R(32,33)                1.2164         estimate D2E/DX2                !
 ! R39   R(33,34)                1.4739         estimate D2E/DX2                !
 ! R40   R(34,49)                1.5475         estimate D2E/DX2                !
 ! R41   R(34,53)                1.5467         estimate D2E/DX2                !
 ! R42   R(34,57)                1.5475         estimate D2E/DX2                !
 ! R43   R(35,36)                1.4739         estimate D2E/DX2                !
 ! R44   R(36,37)                1.5467         estimate D2E/DX2                !
 ! R45   R(36,41)                1.5475         estimate D2E/DX2                !
 ! R46   R(36,45)                1.5475         estimate D2E/DX2                !
 ! R47   R(37,38)                1.0944         estimate D2E/DX2                !
 ! R48   R(37,39)                1.0954         estimate D2E/DX2                !
 ! R49   R(37,40)                1.0942         estimate D2E/DX2                !
 ! R50   R(41,42)                1.0937         estimate D2E/DX2                !
 ! R51   R(41,43)                1.0956         estimate D2E/DX2                !
 ! R52   R(41,44)                1.0939         estimate D2E/DX2                !
 ! R53   R(45,46)                1.0938         estimate D2E/DX2                !
 ! R54   R(45,47)                1.0938         estimate D2E/DX2                !
 ! R55   R(45,48)                1.0957         estimate D2E/DX2                !
 ! R56   R(49,50)                1.0938         estimate D2E/DX2                !
 ! R57   R(49,51)                1.0957         estimate D2E/DX2                !
 ! R58   R(49,52)                1.0938         estimate D2E/DX2                !
 ! R59   R(53,54)                1.0944         estimate D2E/DX2                !
 ! R60   R(53,55)                1.0942         estimate D2E/DX2                !
 ! R61   R(53,56)                1.0954         estimate D2E/DX2                !
 ! R62   R(57,58)                1.0939         estimate D2E/DX2                !
 ! R63   R(57,59)                1.0956         estimate D2E/DX2                !
 ! R64   R(57,60)                1.0937         estimate D2E/DX2                !
 ! A1    A(2,1,3)              120.1334         estimate D2E/DX2                !
 ! A2    A(2,1,10)             120.2778         estimate D2E/DX2                !
 ! A3    A(3,1,10)             119.5888         estimate D2E/DX2                !
 ! A4    A(1,2,4)              120.4494         estimate D2E/DX2                !
 ! A5    A(1,2,11)             121.5435         estimate D2E/DX2                !
 ! A6    A(4,2,11)             118.0071         estimate D2E/DX2                !
 ! A7    A(1,3,5)              120.1431         estimate D2E/DX2                !
 ! A8    A(1,3,12)             120.8099         estimate D2E/DX2                !
 ! A9    A(5,3,12)             119.047          estimate D2E/DX2                !
 ! A10   A(2,4,6)              117.5222         estimate D2E/DX2                !
 ! A11   A(2,4,7)              133.6566         estimate D2E/DX2                !
 ! A12   A(6,4,7)              108.8212         estimate D2E/DX2                !
 ! A13   A(3,5,6)              120.2352         estimate D2E/DX2                !
 ! A14   A(3,5,13)             123.9849         estimate D2E/DX2                !
 ! A15   A(6,5,13)             115.7799         estimate D2E/DX2                !
 ! A16   A(4,6,5)              121.5166         estimate D2E/DX2                !
 ! A17   A(4,6,9)              108.5543         estimate D2E/DX2                !
 ! A18   A(5,6,9)              129.9291         estimate D2E/DX2                !
 ! A19   A(4,7,8)              107.6678         estimate D2E/DX2                !
 ! A20   A(4,7,14)             125.9451         estimate D2E/DX2                !
 ! A21   A(8,7,14)             126.387          estimate D2E/DX2                !
 ! A22   A(7,8,9)              108.1983         estimate D2E/DX2                !
 ! A23   A(7,8,16)             130.6337         estimate D2E/DX2                !
 ! A24   A(9,8,16)             121.168          estimate D2E/DX2                !
 ! A25   A(6,9,8)              106.7584         estimate D2E/DX2                !
 ! A26   A(6,9,15)             130.089          estimate D2E/DX2                !
 ! A27   A(8,9,15)             123.1526         estimate D2E/DX2                !
 ! A28   A(9,15,18)            115.6794         estimate D2E/DX2                !
 ! A29   A(9,15,31)            125.2745         estimate D2E/DX2                !
 ! A30   A(18,15,31)           119.0461         estimate D2E/DX2                !
 ! A31   A(8,16,17)            115.6794         estimate D2E/DX2                !
 ! A32   A(8,16,32)            119.046          estimate D2E/DX2                !
 ! A33   A(17,16,32)           125.2746         estimate D2E/DX2                !
 ! A34   A(16,17,18)           123.1525         estimate D2E/DX2                !
 ! A35   A(16,17,19)           130.0891         estimate D2E/DX2                !
 ! A36   A(18,17,19)           106.7584         estimate D2E/DX2                !
 ! A37   A(15,18,17)           121.168          estimate D2E/DX2                !
 ! A38   A(15,18,20)           130.6337         estimate D2E/DX2                !
 ! A39   A(17,18,20)           108.1983         estimate D2E/DX2                !
 ! A40   A(17,19,21)           108.5543         estimate D2E/DX2                !
 ! A41   A(17,19,22)           129.9291         estimate D2E/DX2                !
 ! A42   A(21,19,22)           121.5166         estimate D2E/DX2                !
 ! A43   A(18,20,21)           107.6679         estimate D2E/DX2                !
 ! A44   A(18,20,28)           126.387          estimate D2E/DX2                !
 ! A45   A(21,20,28)           125.9451         estimate D2E/DX2                !
 ! A46   A(19,21,20)           108.8212         estimate D2E/DX2                !
 ! A47   A(19,21,24)           117.5223         estimate D2E/DX2                !
 ! A48   A(20,21,24)           133.6565         estimate D2E/DX2                !
 ! A49   A(19,22,23)           120.2352         estimate D2E/DX2                !
 ! A50   A(19,22,26)           115.7799         estimate D2E/DX2                !
 ! A51   A(23,22,26)           123.9848         estimate D2E/DX2                !
 ! A52   A(22,23,25)           120.1432         estimate D2E/DX2                !
 ! A53   A(22,23,27)           119.047          estimate D2E/DX2                !
 ! A54   A(25,23,27)           120.8098         estimate D2E/DX2                !
 ! A55   A(21,24,25)           120.4494         estimate D2E/DX2                !
 ! A56   A(21,24,30)           118.0072         estimate D2E/DX2                !
 ! A57   A(25,24,30)           121.5435         estimate D2E/DX2                !
 ! A58   A(23,25,24)           120.1333         estimate D2E/DX2                !
 ! A59   A(23,25,29)           119.5889         estimate D2E/DX2                !
 ! A60   A(24,25,29)           120.2778         estimate D2E/DX2                !
 ! A61   A(33,34,49)           109.3775         estimate D2E/DX2                !
 ! A62   A(33,34,53)           109.4885         estimate D2E/DX2                !
 ! A63   A(33,34,57)           109.2696         estimate D2E/DX2                !
 ! A64   A(49,34,53)           109.5638         estimate D2E/DX2                !
 ! A65   A(49,34,57)           109.5827         estimate D2E/DX2                !
 ! A66   A(53,34,57)           109.5448         estimate D2E/DX2                !
 ! A67   A(35,36,37)           109.4886         estimate D2E/DX2                !
 ! A68   A(35,36,41)           109.2701         estimate D2E/DX2                !
 ! A69   A(35,36,45)           109.3767         estimate D2E/DX2                !
 ! A70   A(37,36,41)           109.5447         estimate D2E/DX2                !
 ! A71   A(37,36,45)           109.5638         estimate D2E/DX2                !
 ! A72   A(41,36,45)           109.5828         estimate D2E/DX2                !
 ! A73   A(36,37,38)           111.0078         estimate D2E/DX2                !
 ! A74   A(36,37,39)           110.0473         estimate D2E/DX2                !
 ! A75   A(36,37,40)           111.04           estimate D2E/DX2                !
 ! A76   A(38,37,39)           108.1196         estimate D2E/DX2                !
 ! A77   A(38,37,40)           108.337          estimate D2E/DX2                !
 ! A78   A(39,37,40)           108.1895         estimate D2E/DX2                !
 ! A79   A(36,41,42)           110.9711         estimate D2E/DX2                !
 ! A80   A(36,41,43)           110.0576         estimate D2E/DX2                !
 ! A81   A(36,41,44)           110.9371         estimate D2E/DX2                !
 ! A82   A(42,41,43)           108.4076         estimate D2E/DX2                !
 ! A83   A(42,41,44)           108.0744         estimate D2E/DX2                !
 ! A84   A(43,41,44)           108.3031         estimate D2E/DX2                !
 ! A85   A(36,45,46)           110.9804         estimate D2E/DX2                !
 ! A86   A(36,45,47)           110.9052         estimate D2E/DX2                !
 ! A87   A(36,45,48)           110.0511         estimate D2E/DX2                !
 ! A88   A(46,45,47)           108.0675         estimate D2E/DX2                !
 ! A89   A(46,45,48)           108.3978         estimate D2E/DX2                !
 ! A90   A(47,45,48)           108.3504         estimate D2E/DX2                !
 ! A91   A(34,49,50)           110.9805         estimate D2E/DX2                !
 ! A92   A(34,49,51)           110.0508         estimate D2E/DX2                !
 ! A93   A(34,49,52)           110.9049         estimate D2E/DX2                !
 ! A94   A(50,49,51)           108.3979         estimate D2E/DX2                !
 ! A95   A(50,49,52)           108.0677         estimate D2E/DX2                !
 ! A96   A(51,49,52)           108.3505         estimate D2E/DX2                !
 ! A97   A(34,53,54)           111.0082         estimate D2E/DX2                !
 ! A98   A(34,53,55)           111.0396         estimate D2E/DX2                !
 ! A99   A(34,53,56)           110.0473         estimate D2E/DX2                !
 ! A100  A(54,53,55)           108.3371         estimate D2E/DX2                !
 ! A101  A(54,53,56)           108.12           estimate D2E/DX2                !
 ! A102  A(55,53,56)           108.1891         estimate D2E/DX2                !
 ! A103  A(34,57,58)           110.9372         estimate D2E/DX2                !
 ! A104  A(34,57,59)           110.058          estimate D2E/DX2                !
 ! A105  A(34,57,60)           110.971          estimate D2E/DX2                !
 ! A106  A(58,57,59)           108.303          estimate D2E/DX2                !
 ! A107  A(58,57,60)           108.0742         estimate D2E/DX2                !
 ! A108  A(59,57,60)           108.4074         estimate D2E/DX2                !
 ! A109  L(15,31,35,1,-1)      184.0693         estimate D2E/DX2                !
 ! A110  L(16,32,33,11,-1)     175.9299         estimate D2E/DX2                !
 ! A111  L(32,33,34,27,-1)     179.7401         estimate D2E/DX2                !
 ! A112  L(31,35,36,12,-1)     179.7412         estimate D2E/DX2                !
 ! A113  L(15,31,35,1,-2)      179.9843         estimate D2E/DX2                !
 ! A114  L(16,32,33,11,-2)     179.987          estimate D2E/DX2                !
 ! A115  L(32,33,34,27,-2)     180.0387         estimate D2E/DX2                !
 ! A116  L(31,35,36,12,-2)     179.9626         estimate D2E/DX2                !
 ! D1    D(3,1,2,4)             -0.0091         estimate D2E/DX2                !
 ! D2    D(3,1,2,11)           179.9896         estimate D2E/DX2                !
 ! D3    D(10,1,2,4)           179.9998         estimate D2E/DX2                !
 ! D4    D(10,1,2,11)           -0.0015         estimate D2E/DX2                !
 ! D5    D(2,1,3,5)              0.018          estimate D2E/DX2                !
 ! D6    D(2,1,3,12)          -179.9723         estimate D2E/DX2                !
 ! D7    D(10,1,3,5)          -179.9909         estimate D2E/DX2                !
 ! D8    D(10,1,3,12)            0.0189         estimate D2E/DX2                !
 ! D9    D(1,2,4,6)             -0.0173         estimate D2E/DX2                !
 ! D10   D(1,2,4,7)            179.9868         estimate D2E/DX2                !
 ! D11   D(11,2,4,6)           179.984          estimate D2E/DX2                !
 ! D12   D(11,2,4,7)            -0.012          estimate D2E/DX2                !
 ! D13   D(1,3,5,6)              0.0009         estimate D2E/DX2                !
 ! D14   D(1,3,5,13)          -179.9931         estimate D2E/DX2                !
 ! D15   D(12,3,5,6)           179.9914         estimate D2E/DX2                !
 ! D16   D(12,3,5,13)           -0.0027         estimate D2E/DX2                !
 ! D17   D(2,4,6,5)              0.0366         estimate D2E/DX2                !
 ! D18   D(2,4,6,9)           -179.985          estimate D2E/DX2                !
 ! D19   D(7,4,6,5)           -179.9665         estimate D2E/DX2                !
 ! D20   D(7,4,6,9)              0.012          estimate D2E/DX2                !
 ! D21   D(2,4,7,8)            179.9895         estimate D2E/DX2                !
 ! D22   D(2,4,7,14)            -0.0062         estimate D2E/DX2                !
 ! D23   D(6,4,7,8)             -0.0067         estimate D2E/DX2                !
 ! D24   D(6,4,7,14)           179.9976         estimate D2E/DX2                !
 ! D25   D(3,5,6,4)             -0.0286         estimate D2E/DX2                !
 ! D26   D(3,5,6,9)            179.998          estimate D2E/DX2                !
 ! D27   D(13,5,6,4)           179.9659         estimate D2E/DX2                !
 ! D28   D(13,5,6,9)            -0.0075         estimate D2E/DX2                !
 ! D29   D(4,6,9,8)             -0.0121         estimate D2E/DX2                !
 ! D30   D(4,6,9,15)           179.9815         estimate D2E/DX2                !
 ! D31   D(5,6,9,8)            179.964          estimate D2E/DX2                !
 ! D32   D(5,6,9,15)            -0.0425         estimate D2E/DX2                !
 ! D33   D(4,7,8,9)             -0.0007         estimate D2E/DX2                !
 ! D34   D(4,7,8,16)          -179.9992         estimate D2E/DX2                !
 ! D35   D(14,7,8,9)           179.9949         estimate D2E/DX2                !
 ! D36   D(14,7,8,16)           -0.0036         estimate D2E/DX2                !
 ! D37   D(7,8,9,6)              0.008          estimate D2E/DX2                !
 ! D38   D(7,8,9,15)          -179.9861         estimate D2E/DX2                !
 ! D39   D(16,8,9,6)          -179.9933         estimate D2E/DX2                !
 ! D40   D(16,8,9,15)            0.0125         estimate D2E/DX2                !
 ! D41   D(7,8,16,17)          179.9879         estimate D2E/DX2                !
 ! D42   D(7,8,16,32)           -0.0058         estimate D2E/DX2                !
 ! D43   D(9,8,16,17)           -0.0104         estimate D2E/DX2                !
 ! D44   D(9,8,16,32)          179.9959         estimate D2E/DX2                !
 ! D45   D(6,9,15,18)          179.9933         estimate D2E/DX2                !
 ! D46   D(6,9,15,31)           -0.0005         estimate D2E/DX2                !
 ! D47   D(8,9,15,18)           -0.0141         estimate D2E/DX2                !
 ! D48   D(8,9,15,31)          179.9922         estimate D2E/DX2                !
 ! D49   D(9,15,18,17)           0.0148         estimate D2E/DX2                !
 ! D50   D(9,15,18,20)        -179.9811         estimate D2E/DX2                !
 ! D51   D(31,15,18,17)       -179.9911         estimate D2E/DX2                !
 ! D52   D(31,15,18,20)          0.0131         estimate D2E/DX2                !
 ! D53   D(9,15,36,37)           6.4394         estimate D2E/DX2                !
 ! D54   D(9,15,36,41)         126.6912         estimate D2E/DX2                !
 ! D55   D(9,15,36,45)        -114.0861         estimate D2E/DX2                !
 ! D56   D(18,15,36,37)       -173.5251         estimate D2E/DX2                !
 ! D57   D(18,15,36,41)        -53.2733         estimate D2E/DX2                !
 ! D58   D(18,15,36,45)         65.9494         estimate D2E/DX2                !
 ! D59   D(8,16,17,18)           0.0116         estimate D2E/DX2                !
 ! D60   D(8,16,17,19)         179.9982         estimate D2E/DX2                !
 ! D61   D(32,16,17,18)       -179.9952         estimate D2E/DX2                !
 ! D62   D(32,16,17,19)         -0.0086         estimate D2E/DX2                !
 ! D63   D(8,16,34,49)         -65.9676         estimate D2E/DX2                !
 ! D64   D(8,16,34,53)         173.5064         estimate D2E/DX2                !
 ! D65   D(8,16,34,57)          53.2554         estimate D2E/DX2                !
 ! D66   D(17,16,34,49)        114.0679         estimate D2E/DX2                !
 ! D67   D(17,16,34,53)         -6.4581         estimate D2E/DX2                !
 ! D68   D(17,16,34,57)       -126.7091         estimate D2E/DX2                !
 ! D69   D(16,17,18,15)         -0.0145         estimate D2E/DX2                !
 ! D70   D(16,17,18,20)        179.9821         estimate D2E/DX2                !
 ! D71   D(19,17,18,15)        179.9962         estimate D2E/DX2                !
 ! D72   D(19,17,18,20)         -0.0071         estimate D2E/DX2                !
 ! D73   D(16,17,19,21)       -179.9793         estimate D2E/DX2                !
 ! D74   D(16,17,19,22)          0.0571         estimate D2E/DX2                !
 ! D75   D(18,17,19,21)          0.0089         estimate D2E/DX2                !
 ! D76   D(18,17,19,22)       -179.9547         estimate D2E/DX2                !
 ! D77   D(15,18,20,21)        179.9988         estimate D2E/DX2                !
 ! D78   D(15,18,20,28)          0.0035         estimate D2E/DX2                !
 ! D79   D(17,18,20,21)          0.0025         estimate D2E/DX2                !
 ! D80   D(17,18,20,28)       -179.9927         estimate D2E/DX2                !
 ! D81   D(17,19,21,20)         -0.0076         estimate D2E/DX2                !
 ! D82   D(17,19,21,24)        179.9883         estimate D2E/DX2                !
 ! D83   D(22,19,21,20)        179.9597         estimate D2E/DX2                !
 ! D84   D(22,19,21,24)         -0.0445         estimate D2E/DX2                !
 ! D85   D(17,19,22,23)        179.9938         estimate D2E/DX2                !
 ! D86   D(17,19,22,26)         -0.0021         estimate D2E/DX2                !
 ! D87   D(21,19,22,23)          0.0343         estimate D2E/DX2                !
 ! D88   D(21,19,22,26)       -179.9616         estimate D2E/DX2                !
 ! D89   D(18,20,21,19)          0.003          estimate D2E/DX2                !
 ! D90   D(18,20,21,24)       -179.992          estimate D2E/DX2                !
 ! D91   D(28,20,21,19)        179.9983         estimate D2E/DX2                !
 ! D92   D(28,20,21,24)          0.0033         estimate D2E/DX2                !
 ! D93   D(19,21,24,25)          0.0227         estimate D2E/DX2                !
 ! D94   D(19,21,24,30)       -179.9787         estimate D2E/DX2                !
 ! D95   D(20,21,24,25)       -179.9827         estimate D2E/DX2                !
 ! D96   D(20,21,24,30)          0.016          estimate D2E/DX2                !
 ! D97   D(19,22,23,25)         -0.0018         estimate D2E/DX2                !
 ! D98   D(19,22,23,27)       -179.9914         estimate D2E/DX2                !
 ! D99   D(26,22,23,25)        179.9939         estimate D2E/DX2                !
 ! D100  D(26,22,23,27)          0.0042         estimate D2E/DX2                !
 ! D101  D(22,23,25,24)         -0.0196         estimate D2E/DX2                !
 ! D102  D(22,23,25,29)        179.9886         estimate D2E/DX2                !
 ! D103  D(27,23,25,24)        179.9699         estimate D2E/DX2                !
 ! D104  D(27,23,25,29)         -0.0219         estimate D2E/DX2                !
 ! D105  D(21,24,25,23)          0.0082         estimate D2E/DX2                !
 ! D106  D(21,24,25,29)        180.0            estimate D2E/DX2                !
 ! D107  D(30,24,25,23)       -179.9904         estimate D2E/DX2                !
 ! D108  D(30,24,25,29)          0.0014         estimate D2E/DX2                !
 ! D109  D(33,34,49,50)        -60.2353         estimate D2E/DX2                !
 ! D110  D(33,34,49,51)        179.7784         estimate D2E/DX2                !
 ! D111  D(33,34,49,52)         59.8998         estimate D2E/DX2                !
 ! D112  D(53,34,49,50)         59.785          estimate D2E/DX2                !
 ! D113  D(53,34,49,51)        -60.2012         estimate D2E/DX2                !
 ! D114  D(53,34,49,52)        179.9201         estimate D2E/DX2                !
 ! D115  D(57,34,49,50)       -179.9992         estimate D2E/DX2                !
 ! D116  D(57,34,49,51)         60.0146         estimate D2E/DX2                !
 ! D117  D(57,34,49,52)        -59.8641         estimate D2E/DX2                !
 ! D118  D(33,34,53,54)         60.6322         estimate D2E/DX2                !
 ! D119  D(33,34,53,55)        -59.9517         estimate D2E/DX2                !
 ! D120  D(33,34,53,56)       -179.7129         estimate D2E/DX2                !
 ! D121  D(49,34,53,54)        -59.3203         estimate D2E/DX2                !
 ! D122  D(49,34,53,55)       -179.9041         estimate D2E/DX2                !
 ! D123  D(49,34,53,56)         60.3346         estimate D2E/DX2                !
 ! D124  D(57,34,53,54)       -179.5592         estimate D2E/DX2                !
 ! D125  D(57,34,53,55)         59.857          estimate D2E/DX2                !
 ! D126  D(57,34,53,56)        -59.9043         estimate D2E/DX2                !
 ! D127  D(33,34,57,58)        -60.0688         estimate D2E/DX2                !
 ! D128  D(33,34,57,59)       -179.9135         estimate D2E/DX2                !
 ! D129  D(33,34,57,60)         60.0897         estimate D2E/DX2                !
 ! D130  D(49,34,57,58)         59.7611         estimate D2E/DX2                !
 ! D131  D(49,34,57,59)        -60.0836         estimate D2E/DX2                !
 ! D132  D(49,34,57,60)        179.9196         estimate D2E/DX2                !
 ! D133  D(53,34,57,58)        179.9885         estimate D2E/DX2                !
 ! D134  D(53,34,57,59)         60.1438         estimate D2E/DX2                !
 ! D135  D(53,34,57,60)        -59.8531         estimate D2E/DX2                !
 ! D136  D(35,36,37,38)        -60.6308         estimate D2E/DX2                !
 ! D137  D(35,36,37,39)        179.715          estimate D2E/DX2                !
 ! D138  D(35,36,37,40)         59.9531         estimate D2E/DX2                !
 ! D139  D(41,36,37,38)        179.5598         estimate D2E/DX2                !
 ! D140  D(41,36,37,39)         59.9057         estimate D2E/DX2                !
 ! D141  D(41,36,37,40)        -59.8563         estimate D2E/DX2                !
 ! D142  D(45,36,37,38)         59.3208         estimate D2E/DX2                !
 ! D143  D(45,36,37,39)        -60.3333         estimate D2E/DX2                !
 ! D144  D(45,36,37,40)        179.9047         estimate D2E/DX2                !
 ! D145  D(35,36,41,42)        -60.0882         estimate D2E/DX2                !
 ! D146  D(35,36,41,43)        179.9149         estimate D2E/DX2                !
 ! D147  D(35,36,41,44)         60.0704         estimate D2E/DX2                !
 ! D148  D(37,36,41,42)         59.8549         estimate D2E/DX2                !
 ! D149  D(37,36,41,43)        -60.142          estimate D2E/DX2                !
 ! D150  D(37,36,41,44)       -179.9865         estimate D2E/DX2                !
 ! D151  D(45,36,41,42)       -179.9176         estimate D2E/DX2                !
 ! D152  D(45,36,41,43)         60.0855         estimate D2E/DX2                !
 ! D153  D(45,36,41,44)        -59.759          estimate D2E/DX2                !
 ! D154  D(35,36,45,46)         60.2372         estimate D2E/DX2                !
 ! D155  D(35,36,45,47)        -59.8977         estimate D2E/DX2                !
 ! D156  D(35,36,45,48)       -179.7765         estimate D2E/DX2                !
 ! D157  D(37,36,45,46)        -59.7828         estimate D2E/DX2                !
 ! D158  D(37,36,45,47)       -179.9177         estimate D2E/DX2                !
 ! D159  D(37,36,45,48)         60.2034         estimate D2E/DX2                !
 ! D160  D(41,36,45,46)       -179.9986         estimate D2E/DX2                !
 ! D161  D(41,36,45,47)         59.8665         estimate D2E/DX2                !
 ! D162  D(41,36,45,48)        -60.0124         estimate D2E/DX2                !
 --------------------------------------------------------------------------------
 Trust Radius=3.00D-01 FncErr=1.00D-07 GrdErr=1.00D-06 EigMax=2.50D+02 EigMin=1.00D-04
 Number of steps in this run=    352 maximum allowed number of steps=    360.
 GradGradGradGradGradGradGradGradGradGradGradGradGradGradGradGradGradGrad

 Stoichiometry    C30H28N2
 Framework group  C1[X(C30H28N2)]
 Deg. of freedom   174
 Full point group                 C1      NOp   1
 Largest Abelian subgroup         C1      NOp   1
 Largest concise Abelian subgroup C1      NOp   1
                         Standard orientation:                         
 ---------------------------------------------------------------------
 Center     Atomic      Atomic             Coordinates (Angstroms)
 Number     Number       Type             X           Y           Z
 ---------------------------------------------------------------------
      1          6           0        2.170889   -5.022734    0.000336
      2          6           0        0.845043   -4.690505    0.000345
      3          6           0        3.168764   -3.996626   -0.000193
      4          6           0        0.443613   -3.324974    0.000024
      5          6           0        2.801302   -2.685480   -0.000320
      6          7           0        1.468280   -2.338771    0.000079
      7          6           0       -0.784057   -2.692015   -0.000282
      8          6           0       -0.547156   -1.292381   -0.000265
      9          6           0        0.871028   -1.078117    0.000080
     10          1           0        2.473859   -6.064861    0.000584
     11          1           0        0.069830   -5.449359    0.000573
     12          1           0        4.222784   -4.247553   -0.000656
     13          1           0        3.500841   -1.862334   -0.000818
     14          1           0       -1.747394   -3.178215   -0.000429
     15          6           0        1.455444    0.200651    0.000472
     16          6           0       -1.455448   -0.200647   -0.000494
     17          6           0       -0.871031    1.078122   -0.000130
     18          6           0        0.547154    1.292385    0.000194
     19          7           0       -1.468281    2.338778   -0.000255
     20          6           0        0.784056    2.692018    0.000092
     21          6           0       -0.443613    3.324979   -0.000224
     22          6           0       -2.801302    2.685490    0.000281
     23          6           0       -3.168761    3.996637    0.000154
     24          6           0       -0.845039    4.690511   -0.000596
     25          6           0       -2.170885    5.022743   -0.000500
     26          1           0       -3.500843    1.862346    0.000858
     27          1           0       -4.222780    4.247566    0.000725
     28          1           0        1.747394    3.178217    0.000163
     29          1           0       -2.473852    6.064871   -0.000784
     30          1           0       -0.069825    5.449364   -0.000932
     31          6           0        2.853539    0.465162    0.000982
     32          6           0       -2.853542   -0.465161   -0.000922
     33          6           0       -4.029688   -0.775552   -0.001006
     34          6           0       -5.456519   -1.145186   -0.000134
     35          6           0        4.029690    0.775535    0.001108
     36          6           0        5.456519    1.145175    0.000319
     37          6           0        6.319366   -0.128169   -0.162502
     38          1           0        6.147974   -0.826400    0.662629
     39          1           0        7.382184    0.136790   -0.169365
     40          1           0        6.089201   -0.641301   -1.101111
     41          6           0        5.733008    2.111796   -1.176046
     42          1           0        5.490964    1.642206   -2.133729
     43          1           0        6.790966    2.396372   -1.187850
     44          1           0        5.133459    3.022000   -1.083240
     45          6           0        5.807273    1.841368    1.337112
     46          1           0        5.620043    1.177013    2.185574
     47          1           0        5.207488    2.745500    1.475414
     48          1           0        6.865619    2.124694    1.346728
     49          6           0       -5.807479   -1.840969   -1.337089
     50          1           0       -5.620338   -1.176370   -2.185379
     51          1           0       -6.865837   -2.124249   -1.346642
     52          1           0       -5.207747   -2.745084   -1.475735
     53          6           0       -6.319336    0.128112    0.163206
     54          1           0       -6.148077    0.826594   -0.661739
     55          1           0       -6.089014    0.640956    1.101935
     56          1           0       -7.382154   -0.136846    0.170172
     57          6           0       -5.732835   -2.112168    1.175975
     58          1           0       -5.133277   -3.022331    1.082820
     59          1           0       -6.790785   -2.396774    1.187837
     60          1           0       -5.490676   -1.642860    2.133768
 ---------------------------------------------------------------------
 Rotational constants (GHZ):           0.1705039           0.0927963           0.0617386
 Standard basis: 6-31G(d,p) (6D, 7F)
 There are   620 symmetry adapted cartesian basis functions of A   symmetry.
 There are   620 symmetry adapted basis functions of A   symmetry.
   620 basis functions,  1092 primitive gaussians,   620 cartesian basis functions
   111 alpha electrons      111 beta electrons
       nuclear repulsion energy      2921.4553915041 Hartrees.
 NAtoms=   60 NActive=   60 NUniq=   60 SFac= 1.00D+00 NAtFMM=   60 NAOKFM=T Big=T
 Integral buffers will be    131072 words long.
 Regular integral format.
 Two-electron integral symmetry is turned on.
 One-electron integrals computed using PRISM.
 NBasis=   620 RedAO= T EigKep=  8.56D-05  NBF=   620
 NBsUse=   620 1.00D-06 EigRej= -1.00D+00 NBFU=   620
 ExpMin= 1.61D-01 ExpMax= 4.17D+03 ExpMxC= 6.27D+02 IAcc=3 IRadAn=         5 AccDes= 0.00D+00
 Harris functional with IExCor=  402 and IRadAn=       5 diagonalized for initial guess.
 HarFok:  IExCor=  402 AccDes= 0.00D+00 IRadAn=         5 IDoV= 1 UseB2=F ITyADJ=14
 ICtDFT=  3500011 ScaDFX=  1.000000  1.000000  1.000000  1.000000
 FoFCou: FMM=F IPFlag=           0 FMFlag=      100000 FMFlg1=        2001
         NFxFlg=           0 DoJE=T BraDBF=F KetDBF=T FulRan=T
         wScrn=  0.000000 ICntrl=       500 IOpCl=  0 I1Cent=   200000004 NGrid=           0
         NMat0=    1 NMatS0=      1 NMatT0=    0 NMatD0=    1 NMtDS0=    0 NMtDT0=    0
 Petite list used in FoFCou.
 Requested convergence on RMS density matrix=1.00D-08 within 128 cycles.
 Requested convergence on MAX density matrix=1.00D-06.
 Requested convergence on             energy=1.00D-06.
 No special actions if energy rises.
 Integral accuracy reduced to 1.0D-05 until final iterations.
 Initial convergence to 1.0D-05 achieved.  Increase integral accuracy.
 SCF Done:  E(RB3LYP) =  -1269.51036298     A.U. after   15 cycles
            NFock= 15  Conv=0.49D-08     -V/T= 2.0098
 DoSCS=F DFT=T ScalE2(SS,OS)=  1.000000  1.000000
 ExpMin= 1.61D-01 ExpMax= 4.17D+03 ExpMxC= 6.27D+02 IAcc=3 IRadAn=         5 AccDes= 0.00D+00
 HarFok:  IExCor=  205 AccDes= 0.00D+00 IRadAn=         5 IDoV=-2 UseB2=F ITyADJ=14
 ICtDFT= 12500011 ScaDFX=  1.000000  1.000000  1.000000  1.000000
 GSVD:  LWork=       -1280 too small for GESVD, short by        5600 words or        5600 for optimal perf.
 Range of M.O.s used for correlation:    33   620
 NBasis=   620 NAE=   111 NBE=   111 NFC=    32 NFV=     0
 NROrb=    588 NOA=    79 NOB=    79 NVA=   509 NVB=   509

 **** Warning!!: The largest alpha MO coefficient is  0.15529735D+02


 **** Warning!!: The smallest alpha delta epsilon is  0.90362022D-01

 Orbital symmetries:
       Occupied  (A) (A) (A) (A) (A) (A) (A) (A) (A) (A) (A) (A)
                 (A) (A) (A) (A) (A) (A) (A) (A) (A) (A) (A) (A)
                 (A) (A) (A) (A) (A) (A) (A) (A) (A) (A) (A) (A)
                 (A) (A) (A) (A) (A) (A) (A) (A) (A) (A) (A) (A)
                 (A) (A) (A) (A) (A) (A) (A) (A) (A) (A) (A) (A)
                 (A) (A) (A) (A) (A) (A) (A) (A) (A) (A) (A) (A)
                 (A) (A) (A) (A) (A) (A) (A) (A) (A) (A) (A) (A)
                 (A) (A) (A) (A) (A) (A) (A) (A) (A) (A) (A) (A)
                 (A) (A) (A) (A) (A) (A) (A) (A) (A) (A) (A) (A)
                 (A) (A) (A)
       Virtual   (A) (A) (A) (A) (A) (A) (A) (A) (A) (A) (A) (A)
                 (A) (A) (A) (A) (A) (A) (A) (A) (A) (A) (A) (A)
                 (A) (A) (A) (A) (A) (A) (A) (A) (A) (A) (A) (A)
                 (A) (A) (A) (A) (A) (A) (A) (A) (A) (A) (A) (A)
                 (A) (A) (A) (A) (A) (A) (A) (A) (A) (A) (A) (A)
                 (A) (A) (A) (A) (A) (A) (A) (A) (A) (A) (A) (A)
                 (A) (A) (A) (A) (A) (A) (A) (A) (A) (A) (A) (A)
                 (A) (A) (A) (A) (A) (A) (A) (A) (A) (A) (A) (A)
                 (A) (A) (A) (A) (A) (A) (A) (A) (A) (A) (A) (A)
                 (A) (A) (A) (A) (A) (A) (A) (A) (A) (A) (A) (A)
                 (A) (A) (A) (A) (A) (A) (A) (A) (A) (A) (A) (A)
                 (A) (A) (A) (A) (A) (A) (A) (A) (A) (A) (A) (A)
                 (A) (A) (A) (A) (A) (A) (A) (A) (A) (A) (A) (A)
                 (A) (A) (A) (A) (A) (A) (A) (A) (A) (A) (A) (A)
                 (A) (A) (A) (A) (A) (A) (A) (A) (A) (A) (A) (A)
                 (A) (A) (A) (A) (A) (A) (A) (A) (A) (A) (A) (A)
                 (A) (A) (A) (A) (A) (A) (A) (A) (A) (A) (A) (A)
                 (A) (A) (A) (A) (A) (A) (A) (A) (A) (A) (A) (A)
                 (A) (A) (A) (A) (A) (A) (A) (A) (A) (A) (A) (A)
                 (A) (A) (A) (A) (A) (A) (A) (A) (A) (A) (A) (A)
                 (A) (A) (A) (A) (A) (A) (A) (A) (A) (A) (A) (A)
                 (A) (A) (A) (A) (A) (A) (A) (A) (A) (A) (A) (A)
                 (A) (A) (A) (A) (A) (A) (A) (A) (A) (A) (A) (A)
                 (A) (A) (A) (A) (A) (A) (A) (A) (A) (A) (A) (A)
                 (A) (A) (A) (A) (A) (A) (A) (A) (A) (A) (A) (A)
                 (A) (A) (A) (A) (A) (A) (A) (A) (A) (A) (A) (A)
                 (A) (A) (A) (A) (A) (A) (A) (A) (A) (A) (A) (A)
                 (A) (A) (A) (A) (A) (A) (A) (A) (A) (A) (A) (A)
                 (A) (A) (A) (A) (A) (A) (A) (A) (A) (A) (A) (A)
                 (A) (A) (A) (A) (A) (A) (A) (A) (A) (A) (A) (A)
                 (A) (A) (A) (A) (A) (A) (A) (A) (A) (A) (A) (A)
                 (A) (A) (A) (A) (A) (A) (A) (A) (A) (A) (A) (A)
                 (A) (A) (A) (A) (A) (A) (A) (A) (A) (A) (A) (A)
                 (A) (A) (A) (A) (A) (A) (A) (A) (A) (A) (A) (A)
                 (A) (A) (A) (A) (A) (A) (A) (A) (A) (A) (A) (A)
                 (A) (A) (A) (A) (A) (A) (A) (A) (A) (A) (A) (A)
                 (A) (A) (A) (A) (A) (A) (A) (A) (A) (A) (A) (A)
                 (A) (A) (A) (A) (A) (A) (A) (A) (A) (A) (A) (A)
                 (A) (A) (A) (A) (A) (A) (A) (A) (A) (A) (A) (A)
                 (A) (A) (A) (A) (A) (A) (A) (A) (A) (A) (A) (A)
                 (A) (A) (A) (A) (A) (A) (A) (A) (A) (A) (A) (A)
                 (A) (A) (A) (A) (A) (A) (A) (A) (A) (A) (A) (A)
                 (A) (A) (A) (A) (A)
     4 initial guesses have been made.
 Convergence on wavefunction:    0.000001000000000
 Iteration     1 Dimension     4 NMult     0 NNew      4
 CISAX will form     4 AO SS matrices at one time.
 Iteration     2 Dimension     6 NMult     4 NNew      2
 Iteration     3 Dimension     8 NMult     6 NNew      2
 Iteration     4 Dimension    10 NMult     8 NNew      2
 Iteration     5 Dimension    12 NMult    10 NNew      2
 Iteration     6 Dimension    14 NMult    12 NNew      2
 Iteration     7 Dimension    16 NMult    14 NNew      2
 Iteration     8 Dimension    18 NMult    16 NNew      2
 Iteration     9 Dimension    20 NMult    18 NNew      2
 Iteration    10 Dimension    22 NMult    20 NNew      2
 Iteration    11 Dimension    24 NMult    22 NNew      2
 Iteration    12 Dimension    26 NMult    24 NNew      2
 ***********************************************************************
 Excited states from <AA,BB:AA,BB> singles matrix:
 ***********************************************************************
 
 Ground to excited state transition densities written to RWF  633
 Ground to excited state transition electric dipole moments (Au):
       state          X           Y           Z        Dip. S.      Osc.
         1        -1.8841      0.5211     -0.0046      3.8212      0.1989
 Ground to excited state transition velocity dipole moments (Au):
       state          X           Y           Z        Dip. S.      Osc.
         1         0.1560     -0.0289      0.0004      0.0252      0.2150
 Ground to excited state transition magnetic dipole moments (Au):
       state          X           Y           Z
         1        -0.0000     -0.0000     -0.0000
 Ground to excited state transition velocity quadrupole moments (Au):
       state          XX          YY          ZZ          XY          XZ          YZ
         1        -0.0000      0.0000      0.0000      0.0000      0.0000      0.0000
 <0|del|b> * <b|rxdel|0> + <0|del|b> * <b|delr+rdel|0>
 Rotatory Strengths (R) in cgs (10**-40 erg-esu-cm/Gauss)
       state          XX          YY          ZZ    R(velocity)    E-M Angle
         1         0.0055     -0.0232     -0.0257     -0.0145       90.00
 1/2[<0|r|b>*<b|rxdel|0> + (<0|rxdel|b>*<b|r|0>)*]
 Rotatory Strengths (R) in cgs (10**-40 erg-esu-cm/Gauss)
       state          XX          YY          ZZ     R(length)
         1        -0.0502      0.0139     -0.0000     -0.0121
  1/2[<0|del|b>*<b|r|0> + (<0|r|b>*<b|del|0>)*] (Au)
       state          X           Y           Z        Dip. S.   Osc.(frdel)
         1        -0.2940     -0.0151     -0.0000      0.3091      0.2060

 Excitation energies and oscillator strengths:
 
 Excited State   1:      Singlet-A      2.1250 eV  583.45 nm  f=0.1989  <S**2>=0.000
     111 ->112         0.70088
 This state for optimization and/or second-order correction.
 Total Energy, E(TD-HF/TD-DFT) =  -1269.43226962    
 Copying the excited state density for this state as the 1-particle RhoCI density.
 SavETr:  write IOETrn=   770 NScale= 10 NData=  16 NLR=1 NState=    1 LETran=      28.
          IDoAtm=11111111111111111111111111111111111111111111111111
          IDoAtm=1111111111
          Differentiating once with respect to electric field.
                with respect to dipole field.
          Differentiating once with respect to nuclear coordinates.
          There are     1 degrees of freedom in the 1st order CPHF.  IDoFFX=0 NUNeed=     1.
 LinEq1:  Iter=  0 NonCon=     1 RMS=2.57D-03 Max=3.33D-01 NDo=     1
 AX will form     1 AO Fock derivatives at one time.
 LinEq1:  Iter=  1 NonCon=     1 RMS=1.72D-03 Max=2.08D-01 NDo=     1
 LinEq1:  Iter=  2 NonCon=     1 RMS=1.23D-03 Max=1.29D-01 NDo=     1
 LinEq1:  Iter=  3 NonCon=     1 RMS=5.89D-04 Max=3.95D-02 NDo=     1
 LinEq1:  Iter=  4 NonCon=     1 RMS=5.31D-04 Max=2.61D-02 NDo=     1
 LinEq1:  Iter=  5 NonCon=     1 RMS=3.87D-04 Max=3.52D-02 NDo=     1
 LinEq1:  Iter=  6 NonCon=     1 RMS=2.30D-04 Max=1.94D-02 NDo=     1
 LinEq1:  Iter=  7 NonCon=     1 RMS=1.59D-04 Max=8.99D-03 NDo=     1
 LinEq1:  Iter=  8 NonCon=     1 RMS=6.80D-05 Max=3.66D-03 NDo=     1
 LinEq1:  Iter=  9 NonCon=     1 RMS=4.53D-05 Max=2.79D-03 NDo=     1
 LinEq1:  Iter= 10 NonCon=     1 RMS=2.48D-05 Max=1.44D-03 NDo=     1
 LinEq1:  Iter= 11 NonCon=     1 RMS=1.98D-05 Max=1.36D-03 NDo=     1
 LinEq1:  Iter= 12 NonCon=     1 RMS=8.81D-06 Max=7.02D-04 NDo=     1
 LinEq1:  Iter= 13 NonCon=     1 RMS=5.26D-06 Max=3.60D-04 NDo=     1
 LinEq1:  Iter= 14 NonCon=     1 RMS=2.14D-06 Max=1.47D-04 NDo=     1
 LinEq1:  Iter= 15 NonCon=     1 RMS=9.23D-07 Max=5.56D-05 NDo=     1
 LinEq1:  Iter= 16 NonCon=     1 RMS=6.49D-07 Max=7.40D-05 NDo=     1
 LinEq1:  Iter= 17 NonCon=     1 RMS=6.64D-07 Max=6.02D-05 NDo=     1
 LinEq1:  Iter= 18 NonCon=     1 RMS=3.12D-07 Max=1.39D-05 NDo=     1
 LinEq1:  Iter= 19 NonCon=     1 RMS=1.05D-07 Max=4.90D-06 NDo=     1
 LinEq1:  Iter= 20 NonCon=     1 RMS=4.97D-08 Max=2.63D-06 NDo=     1
 LinEq1:  Iter= 21 NonCon=     1 RMS=2.20D-08 Max=1.08D-06 NDo=     1
 LinEq1:  Iter= 22 NonCon=     1 RMS=1.63D-08 Max=1.22D-06 NDo=     1
 LinEq1:  Iter= 23 NonCon=     1 RMS=1.23D-08 Max=4.94D-07 NDo=     1
 LinEq1:  Iter= 24 NonCon=     1 RMS=4.50D-09 Max=2.25D-07 NDo=     1
 LinEq1:  Iter= 25 NonCon=     1 RMS=2.38D-09 Max=1.07D-07 NDo=     1
 LinEq1:  Iter= 26 NonCon=     1 RMS=7.45D-10 Max=4.23D-08 NDo=     1
 LinEq1:  Iter= 27 NonCon=     1 RMS=3.28D-10 Max=1.43D-08 NDo=     1
 LinEq1:  Iter= 28 NonCon=     1 RMS=2.13D-10 Max=9.92D-09 NDo=     1
 LinEq1:  Iter= 29 NonCon=     1 RMS=1.64D-10 Max=8.80D-09 NDo=     1
 LinEq1:  Iter= 30 NonCon=     1 RMS=9.25D-11 Max=4.51D-09 NDo=     1
 LinEq1:  Iter= 31 NonCon=     1 RMS=3.52D-11 Max=1.82D-09 NDo=     1
 LinEq1:  Iter= 32 NonCon=     1 RMS=2.56D-11 Max=1.51D-09 NDo=     1
 LinEq1:  Iter= 33 NonCon=     0 RMS=1.32D-11 Max=6.77D-10 NDo=     1
 Linear equations converged to 1.000D-10 1.000D-09 after    33 iterations.
 End of Minotr F.D. properties file   721 does not exist.
 End of Minotr F.D. properties file   722 does not exist.
 End of Minotr F.D. properties file   788 does not exist.

 **********************************************************************

            Population analysis using the SCF density.

 **********************************************************************

 Orbital symmetries:
       Occupied  (A) (A) (A) (A) (A) (A) (A) (A) (A) (A) (A) (A)
                 (A) (A) (A) (A) (A) (A) (A) (A) (A) (A) (A) (A)
                 (A) (A) (A) (A) (A) (A) (A) (A) (A) (A) (A) (A)
                 (A) (A) (A) (A) (A) (A) (A) (A) (A) (A) (A) (A)
                 (A) (A) (A) (A) (A) (A) (A) (A) (A) (A) (A) (A)
                 (A) (A) (A) (A) (A) (A) (A) (A) (A) (A) (A) (A)
                 (A) (A) (A) (A) (A) (A) (A) (A) (A) (A) (A) (A)
                 (A) (A) (A) (A) (A) (A) (A) (A) (A) (A) (A) (A)
                 (A) (A) (A) (A) (A) (A) (A) (A) (A) (A) (A) (A)
                 (A) (A) (A)
       Virtual   (A) (A) (A) (A) (A) (A) (A) (A) (A) (A) (A) (A)
                 (A) (A) (A) (A) (A) (A) (A) (A) (A) (A) (A) (A)
                 (A) (A) (A) (A) (A) (A) (A) (A) (A) (A) (A) (A)
                 (A) (A) (A) (A) (A) (A) (A) (A) (A) (A) (A) (A)
                 (A) (A) (A) (A) (A) (A) (A) (A) (A) (A) (A) (A)
                 (A) (A) (A) (A) (A) (A) (A) (A) (A) (A) (A) (A)
                 (A) (A) (A) (A) (A) (A) (A) (A) (A) (A) (A) (A)
                 (A) (A) (A) (A) (A) (A) (A) (A) (A) (A) (A) (A)
                 (A) (A) (A) (A) (A) (A) (A) (A) (A) (A) (A) (A)
                 (A) (A) (A) (A) (A) (A) (A) (A) (A) (A) (A) (A)
                 (A) (A) (A) (A) (A) (A) (A) (A) (A) (A) (A) (A)
                 (A) (A) (A) (A) (A) (A) (A) (A) (A) (A) (A) (A)
                 (A) (A) (A) (A) (A) (A) (A) (A) (A) (A) (A) (A)
                 (A) (A) (A) (A) (A) (A) (A) (A) (A) (A) (A) (A)
                 (A) (A) (A) (A) (A) (A) (A) (A) (A) (A) (A) (A)
                 (A) (A) (A) (A) (A) (A) (A) (A) (A) (A) (A) (A)
                 (A) (A) (A) (A) (A) (A) (A) (A) (A) (A) (A) (A)
                 (A) (A) (A) (A) (A) (A) (A) (A) (A) (A) (A) (A)
                 (A) (A) (A) (A) (A) (A) (A) (A) (A) (A) (A) (A)
                 (A) (A) (A) (A) (A) (A) (A) (A) (A) (A) (A) (A)
                 (A) (A) (A) (A) (A) (A) (A) (A) (A) (A) (A) (A)
                 (A) (A) (A) (A) (A) (A) (A) (A) (A) (A) (A) (A)
                 (A) (A) (A) (A) (A) (A) (A) (A) (A) (A) (A) (A)
                 (A) (A) (A) (A) (A) (A) (A) (A) (A) (A) (A) (A)
                 (A) (A) (A) (A) (A) (A) (A) (A) (A) (A) (A) (A)
                 (A) (A) (A) (A) (A) (A) (A) (A) (A) (A) (A) (A)
                 (A) (A) (A) (A) (A) (A) (A) (A) (A) (A) (A) (A)
                 (A) (A) (A) (A) (A) (A) (A) (A) (A) (A) (A) (A)
                 (A) (A) (A) (A) (A) (A) (A) (A) (A) (A) (A) (A)
                 (A) (A) (A) (A) (A) (A) (A) (A) (A) (A) (A) (A)
                 (A) (A) (A) (A) (A) (A) (A) (A) (A) (A) (A) (A)
                 (A) (A) (A) (A) (A) (A) (A) (A) (A) (A) (A) (A)
                 (A) (A) (A) (A) (A) (A) (A) (A) (A) (A) (A) (A)
                 (A) (A) (A) (A) (A) (A) (A) (A) (A) (A) (A) (A)
                 (A) (A) (A) (A) (A) (A) (A) (A) (A) (A) (A) (A)
                 (A) (A) (A) (A) (A) (A) (A) (A) (A) (A) (A) (A)
                 (A) (A) (A) (A) (A) (A) (A) (A) (A) (A) (A) (A)
                 (A) (A) (A) (A) (A) (A) (A) (A) (A) (A) (A) (A)
                 (A) (A) (A) (A) (A) (A) (A) (A) (A) (A) (A) (A)
                 (A) (A) (A) (A) (A) (A) (A) (A) (A) (A) (A) (A)
                 (A) (A) (A) (A) (A) (A) (A) (A) (A) (A) (A) (A)
                 (A) (A) (A) (A) (A) (A) (A) (A) (A) (A) (A) (A)
                 (A) (A) (A) (A) (A)
 The electronic state is 1-A.
 Alpha  occ. eigenvalues --  -14.39626 -14.39626 -10.22715 -10.22715 -10.22274
 Alpha  occ. eigenvalues --  -10.22274 -10.22076 -10.22075 -10.22033 -10.22033
 Alpha  occ. eigenvalues --  -10.20828 -10.20828 -10.19433 -10.19433 -10.19235
 Alpha  occ. eigenvalues --  -10.19235 -10.18757 -10.18756 -10.18730 -10.18730
 Alpha  occ. eigenvalues --  -10.18255 -10.18255 -10.18053 -10.18053 -10.17991
 Alpha  occ. eigenvalues --  -10.17991 -10.17978 -10.17978 -10.17820 -10.17820
 Alpha  occ. eigenvalues --  -10.16119 -10.16119  -0.99708  -0.99459  -0.86115
 Alpha  occ. eigenvalues --   -0.83159  -0.82980  -0.82903  -0.81341  -0.80377
 Alpha  occ. eigenvalues --   -0.79585  -0.77604  -0.73427  -0.72917  -0.71332
 Alpha  occ. eigenvalues --   -0.71148  -0.69026  -0.69025  -0.68838  -0.68838
 Alpha  occ. eigenvalues --   -0.67779  -0.66943  -0.63081  -0.61679  -0.60613
 Alpha  occ. eigenvalues --   -0.59522  -0.59395  -0.58000  -0.57418  -0.54554
 Alpha  occ. eigenvalues --   -0.52468  -0.51454  -0.49447  -0.48716  -0.48112
 Alpha  occ. eigenvalues --   -0.47603  -0.47173  -0.46726  -0.45378  -0.44676
 Alpha  occ. eigenvalues --   -0.44658  -0.44571  -0.44198  -0.44152  -0.44086
 Alpha  occ. eigenvalues --   -0.43963  -0.43436  -0.42950  -0.41154  -0.39665
 Alpha  occ. eigenvalues --   -0.39533  -0.39408  -0.39405  -0.39389  -0.39258
 Alpha  occ. eigenvalues --   -0.37727  -0.36900  -0.36899  -0.36746  -0.36473
 Alpha  occ. eigenvalues --   -0.36287  -0.36150  -0.35683  -0.35246  -0.35001
 Alpha  occ. eigenvalues --   -0.34446  -0.34167  -0.34166  -0.34104  -0.32718
 Alpha  occ. eigenvalues --   -0.31820  -0.29868  -0.29085  -0.28531  -0.25625
 Alpha  occ. eigenvalues --   -0.25462  -0.24944  -0.22880  -0.20596  -0.19565
 Alpha  occ. eigenvalues --   -0.15007
 Alpha virt. eigenvalues --   -0.05971  -0.01482  -0.00281   0.01480   0.03241
 Alpha virt. eigenvalues --    0.04952   0.05388   0.07194   0.07285   0.07503
 Alpha virt. eigenvalues --    0.08024   0.10069   0.10405   0.12450   0.12650
 Alpha virt. eigenvalues --    0.12807   0.13016   0.13612   0.13841   0.14384
 Alpha virt. eigenvalues --    0.14847   0.14882   0.15489   0.15839   0.16078
 Alpha virt. eigenvalues --    0.16337   0.16533   0.16689   0.17098   0.17286
 Alpha virt. eigenvalues --    0.17427   0.17943   0.18722   0.18993   0.19131
 Alpha virt. eigenvalues --    0.19837   0.19946   0.20229   0.20257   0.20409
 Alpha virt. eigenvalues --    0.20603   0.20998   0.21155   0.22133   0.22150
 Alpha virt. eigenvalues --    0.22530   0.22790   0.24027   0.24125   0.24987
 Alpha virt. eigenvalues --    0.25009   0.26143   0.26316   0.26810   0.27116
 Alpha virt. eigenvalues --    0.28451   0.28970   0.30425   0.30857   0.31997
 Alpha virt. eigenvalues --    0.33522   0.35206   0.35290   0.39027   0.39461
 Alpha virt. eigenvalues --    0.40212   0.42823   0.44321   0.44664   0.45122
 Alpha virt. eigenvalues --    0.45886   0.48412   0.49053   0.49116   0.49309
 Alpha virt. eigenvalues --    0.49720   0.49805   0.49919   0.49943   0.50325
 Alpha virt. eigenvalues --    0.50425   0.50789   0.51379   0.52159   0.52416
 Alpha virt. eigenvalues --    0.52987   0.53148   0.54026   0.55039   0.55347
 Alpha virt. eigenvalues --    0.55480   0.55937   0.56298   0.56894   0.57215
 Alpha virt. eigenvalues --    0.57657   0.57885   0.58402   0.58751   0.59122
 Alpha virt. eigenvalues --    0.59448   0.59852   0.60393   0.60499   0.61163
 Alpha virt. eigenvalues --    0.61229   0.61409   0.61444   0.61781   0.62392
 Alpha virt. eigenvalues --    0.62853   0.62909   0.63088   0.64076   0.64459
 Alpha virt. eigenvalues --    0.65820   0.66346   0.67798   0.68038   0.68183
 Alpha virt. eigenvalues --    0.68278   0.68995   0.69244   0.69582   0.70204
 Alpha virt. eigenvalues --    0.70437   0.70612   0.71608   0.75201   0.75404
 Alpha virt. eigenvalues --    0.76829   0.77721   0.78326   0.79031   0.80292
 Alpha virt. eigenvalues --    0.80646   0.81066   0.81570   0.81782   0.82024
 Alpha virt. eigenvalues --    0.82192   0.82594   0.83118   0.83365   0.83386
 Alpha virt. eigenvalues --    0.83899   0.83946   0.85027   0.85450   0.86475
 Alpha virt. eigenvalues --    0.86658   0.86689   0.86995   0.87196   0.88079
 Alpha virt. eigenvalues --    0.88432   0.88734   0.88773   0.89725   0.90796
 Alpha virt. eigenvalues --    0.90936   0.91121   0.91266   0.91473   0.91583
 Alpha virt. eigenvalues --    0.91816   0.91952   0.93060   0.93135   0.93408
 Alpha virt. eigenvalues --    0.93841   0.94920   0.95166   0.95857   0.96140
 Alpha virt. eigenvalues --    0.96637   0.97279   0.97624   0.97730   0.99857
 Alpha virt. eigenvalues --    1.00077   1.00536   1.00794   1.01007   1.01073
 Alpha virt. eigenvalues --    1.03196   1.04633   1.06484   1.07053   1.08426
 Alpha virt. eigenvalues --    1.09149   1.11640   1.11986   1.14417   1.14700
 Alpha virt. eigenvalues --    1.15769   1.17380   1.17642   1.19449   1.20052
 Alpha virt. eigenvalues --    1.22813   1.23001   1.23551   1.24436   1.25069
 Alpha virt. eigenvalues --    1.25901   1.27344   1.27636   1.29266   1.29486
 Alpha virt. eigenvalues --    1.29820   1.31947   1.33665   1.33701   1.35260
 Alpha virt. eigenvalues --    1.35561   1.36462   1.37274   1.37494   1.37646
 Alpha virt. eigenvalues --    1.37773   1.38899   1.38904   1.38993   1.40338
 Alpha virt. eigenvalues --    1.40343   1.40600   1.41190   1.42015   1.42225
 Alpha virt. eigenvalues --    1.42280   1.43074   1.44137   1.44202   1.44849
 Alpha virt. eigenvalues --    1.45344   1.46087   1.48248   1.49438   1.49440
 Alpha virt. eigenvalues --    1.51048   1.53122   1.57117   1.57271   1.57761
 Alpha virt. eigenvalues --    1.58146   1.58583   1.61189   1.62121   1.63149
 Alpha virt. eigenvalues --    1.63966   1.65198   1.66290   1.67804   1.68186
 Alpha virt. eigenvalues --    1.69736   1.70819   1.72201   1.75220   1.75679
 Alpha virt. eigenvalues --    1.77005   1.77067   1.78032   1.78646   1.79173
 Alpha virt. eigenvalues --    1.79748   1.80123   1.80481   1.82454   1.82867
 Alpha virt. eigenvalues --    1.83516   1.84283   1.85188   1.85451   1.85584
 Alpha virt. eigenvalues --    1.85811   1.86013   1.86486   1.86631   1.86922
 Alpha virt. eigenvalues --    1.88046   1.88075   1.88170   1.89530   1.92230
 Alpha virt. eigenvalues --    1.92616   1.92682   1.92857   1.93215   1.94490
 Alpha virt. eigenvalues --    1.95071   1.96755   1.97381   1.98256   1.98285
 Alpha virt. eigenvalues --    1.98415   1.98719   1.99027   1.99730   1.99800
 Alpha virt. eigenvalues --    2.00756   2.00874   2.02289   2.02678   2.02934
 Alpha virt. eigenvalues --    2.03152   2.03600   2.03703   2.03869   2.04066
 Alpha virt. eigenvalues --    2.04093   2.04329   2.04341   2.05990   2.06876
 Alpha virt. eigenvalues --    2.09930   2.10290   2.10357   2.10669   2.10707
 Alpha virt. eigenvalues --    2.11945   2.12240   2.12258   2.12681   2.13984
 Alpha virt. eigenvalues --    2.14710   2.14964   2.15140   2.15188   2.15561
 Alpha virt. eigenvalues --    2.15838   2.16412   2.17091   2.17698   2.18534
 Alpha virt. eigenvalues --    2.20972   2.21368   2.21381   2.22454   2.23390
 Alpha virt. eigenvalues --    2.23978   2.24601   2.24886   2.26108   2.27492
 Alpha virt. eigenvalues --    2.27805   2.28569   2.29794   2.30174   2.30242
 Alpha virt. eigenvalues --    2.30931   2.30964   2.32808   2.33637   2.34237
 Alpha virt. eigenvalues --    2.35201   2.37012   2.37143   2.38604   2.39345
 Alpha virt. eigenvalues --    2.39430   2.39503   2.39684   2.40999   2.41982
 Alpha virt. eigenvalues --    2.42737   2.45432   2.45758   2.46380   2.48599
 Alpha virt. eigenvalues --    2.48970   2.49555   2.50044   2.50723   2.52034
 Alpha virt. eigenvalues --    2.52807   2.53835   2.54569   2.55734   2.56644
 Alpha virt. eigenvalues --    2.57020   2.57480   2.57987   2.58435   2.59032
 Alpha virt. eigenvalues --    2.59721   2.60525   2.61422   2.61506   2.61685
 Alpha virt. eigenvalues --    2.61996   2.64670   2.64947   2.65853   2.67962
 Alpha virt. eigenvalues --    2.70372   2.70404   2.70850   2.71471   2.72248
 Alpha virt. eigenvalues --    2.72565   2.72964   2.72988   2.73049   2.73130
 Alpha virt. eigenvalues --    2.75426   2.75668   2.75785   2.76090   2.79451
 Alpha virt. eigenvalues --    2.80160   2.80748   2.81148   2.83230   2.83280
 Alpha virt. eigenvalues --    2.83984   2.85685   2.85917   2.86145   2.86167
 Alpha virt. eigenvalues --    2.88294   2.88869   2.90237   2.92577   2.93053
 Alpha virt. eigenvalues --    2.93078   2.93202   2.93513   2.94161   2.95307
 Alpha virt. eigenvalues --    2.96981   2.98381   2.98543   2.99525   3.03622
 Alpha virt. eigenvalues --    3.06066   3.06508   3.08383   3.13185   3.13913
 Alpha virt. eigenvalues --    3.16892   3.17528   3.17786   3.18959   3.22445
 Alpha virt. eigenvalues --    3.22749   3.22762   3.23055   3.23314   3.25044
 Alpha virt. eigenvalues --    3.25345   3.30078   3.30822   3.33654   3.39579
 Alpha virt. eigenvalues --    3.39902   3.42029   3.42043   3.42314   3.42320
 Alpha virt. eigenvalues --    3.42409   3.42565   3.42871   3.45501   3.47851
 Alpha virt. eigenvalues --    3.50428   3.50689   3.50690   3.51012   3.52229
 Alpha virt. eigenvalues --    3.52293   3.58820   3.60104   3.61649   3.66971
 Alpha virt. eigenvalues --    3.87852   3.88709   4.10472   4.11608   4.13138
 Alpha virt. eigenvalues --    4.15503   4.18525   4.18934   4.20187   4.21406
 Alpha virt. eigenvalues --    4.28498   4.28523   4.30952   4.32923   4.38319
 Alpha virt. eigenvalues --    4.40216   4.44320   4.46149   4.49402   4.51552
 Alpha virt. eigenvalues --    4.54099   4.54124   4.54453   4.54661   4.56070
 Alpha virt. eigenvalues --    4.57542   4.62446   4.64801   4.73845   4.82306
 Alpha virt. eigenvalues --    4.84127   4.86671   4.98071   5.11075
          Condensed to atoms (all electrons):
 Mulliken charges:
               1
     1  C   -0.067922
     2  C   -0.135075
     3  C   -0.165304
     4  C    0.334193
     5  C    0.145321
     6  N   -0.696150
     7  C   -0.205714
     8  C    0.032163
     9  C    0.279085
    10  H    0.090425
    11  H    0.094547
    12  H    0.090763
    13  H    0.132814
    14  H    0.086175
    15  C   -0.005632
    16  C   -0.005629
    17  C    0.279082
    18  C    0.032165
    19  N   -0.696149
    20  C   -0.205715
    21  C    0.334194
    22  C    0.145321
    23  C   -0.165303
    24  C   -0.135075
    25  C   -0.067922
    26  H    0.132813
    27  H    0.090762
    28  H    0.086174
    29  H    0.090425
    30  H    0.094548
    31  C    0.129359
    32  C    0.129354
    33  C   -0.127666
    34  C   -0.097957
    35  C   -0.127670
    36  C   -0.097957
    37  C   -0.296407
    38  H    0.108180
    39  H    0.102368
    40  H    0.110186
    41  C   -0.290643
    42  H    0.112119
    43  H    0.099625
    44  H    0.109904
    45  C   -0.289972
    46  H    0.111132
    47  H    0.110578
    48  H    0.099508
    49  C   -0.289971
    50  H    0.111131
    51  H    0.099509
    52  H    0.110577
    53  C   -0.296406
    54  H    0.108177
    55  H    0.110188
    56  H    0.102368
    57  C   -0.290644
    58  H    0.109904
    59  H    0.099625
    60  H    0.112120
 Sum of Mulliken charges =  -0.00000
 Mulliken charges with hydrogens summed into heavy atoms:
               1
     1  C    0.022503
     2  C   -0.040528
     3  C   -0.074541
     4  C    0.334193
     5  C    0.278135
     6  N   -0.696150
     7  C   -0.119539
     8  C    0.032163
     9  C    0.279085
    15  C   -0.005632
    16  C   -0.005629
    17  C    0.279082
    18  C    0.032165
    19  N   -0.696149
    20  C   -0.119540
    21  C    0.334194
    22  C    0.278134
    23  C   -0.074541
    24  C   -0.040528
    25  C    0.022503
    31  C    0.129359
    32  C    0.129354
    33  C   -0.127666
    34  C   -0.097957
    35  C   -0.127670
    36  C   -0.097957
    37  C    0.024326
    41  C    0.031006
    45  C    0.031247
    49  C    0.031246
    53  C    0.024327
    57  C    0.031005
 Electronic spatial extent (au):  <R**2>=          17057.3929
 Charge=             -0.0000 electrons
 Dipole moment (field-independent basis, Debye):
    X=              0.0000    Y=              0.0000    Z=              0.0001  Tot=              0.0001
 Quadrupole moment (field-independent basis, Debye-Ang):
   XX=           -150.5826   YY=           -168.7302   ZZ=           -193.7186
   XY=             -0.4238   XZ=             -0.0831   YZ=             -0.0060
 Traceless Quadrupole moment (field-independent basis, Debye-Ang):
   XX=             20.4279   YY=              2.2803   ZZ=            -22.7081
   XY=             -0.4238   XZ=             -0.0831   YZ=             -0.0060
 Octapole moment (field-independent basis, Debye-Ang**2):
  XXX=              0.0003  YYY=              0.0007  ZZZ=              0.0028  XYY=             -0.0003
  XXY=             -0.0001  XXZ=              0.0056  XZZ=              0.0001  YZZ=             -0.0003
  YYZ=             -0.0046  XYZ=             -0.0006
 Hexadecapole moment (field-independent basis, Debye-Ang**3):
 XXXX=         -13865.7473 YYYY=          -7116.8579 ZZZZ=           -552.9075 XXXY=             90.7256
 XXXZ=             -3.1594 YYYX=           -154.9550 YYYZ=              2.2688 ZZZX=             -4.0142
 ZZZY=             -0.7322 XXYY=          -3621.9688 XXZZ=          -2661.7645 YYZZ=          -1525.5425
 XXYZ=             -2.2574 YYXZ=              3.0418 ZZXY=             29.0610
 N-N= 2.921455391504D+03 E-N=-8.782134814361D+03  KE= 1.257224293203D+03
 Calling FoFJK, ICntrl=  10005127 FMM=T ISym2X=0 I1Cent= 0 IOpClX= 0 NMat=1 NMatS=1 NMatT=0.
 ***** Axes restored to original set *****
 -------------------------------------------------------------------
 Center     Atomic                   Forces (Hartrees/Bohr)
 Number     Number              X              Y              Z
 -------------------------------------------------------------------
      1        6          -0.027321761    0.002401316    0.000010044
      2        6           0.021498893    0.015445976    0.000003142
      3        6           0.007989208   -0.022184805   -0.000004343
      4        6          -0.026868849   -0.020512513   -0.000012807
      5        6           0.003644137    0.014689062   -0.000004098
      6        7           0.006654411   -0.003320930    0.000004007
      7        6           0.009438467    0.017957217    0.000007390
      8        6          -0.009367853   -0.005690244   -0.000009921
      9        6           0.009674196   -0.007770611    0.000007887
     10        1          -0.000251852    0.000346267    0.000000900
     11        1           0.000180121    0.000300876    0.000001208
     12        1           0.000007771   -0.000210194   -0.000000623
     13        1           0.000744723    0.000118524    0.000003200
     14        1           0.000296857   -0.000080301    0.000001845
     15        6          -0.017402166    0.001233445   -0.000009121
     16        6           0.017400855   -0.001232939    0.000007428
     17        6          -0.009673919    0.007770324   -0.000000684
     18        6           0.009368887    0.005690261    0.000012760
     19        7          -0.006654402    0.003320151   -0.000021300
     20        6          -0.009439009   -0.017956656   -0.000010955
     21        6           0.026868308    0.020512716    0.000020858
     22        6          -0.003644092   -0.014689096    0.000007569
     23        6          -0.007989117    0.022184663    0.000005436
     24        6          -0.021498157   -0.015445854   -0.000001691
     25        6           0.027320958   -0.002401209   -0.000010786
     26        1          -0.000744598   -0.000118784   -0.000003446
     27        1          -0.000007432    0.000210250    0.000001409
     28        1          -0.000296593    0.000080191   -0.000003324
     29        1           0.000251942   -0.000346401   -0.000001493
     30        1          -0.000180182   -0.000301029   -0.000002739
     31        6           0.010528536   -0.002503854    0.000008697
     32        6          -0.010529151    0.002503694   -0.000005509
     33        6           0.006609227   -0.001679658   -0.000109626
     34        6          -0.001609564    0.000492775   -0.000070252
     35        6          -0.006607881    0.001680341    0.000109402
     36        6           0.001609663   -0.000493989    0.000070893
     37        6          -0.000024776    0.000197640   -0.000011561
     38        1           0.000016935    0.000043573   -0.000029217
     39        1          -0.000114273   -0.000038535   -0.000036849
     40        1           0.000067263    0.000070334    0.000010324
     41        6          -0.000524056   -0.000063431   -0.000021353
     42        1           0.000030264   -0.000044207   -0.000055321
     43        1          -0.000185834    0.000262615    0.000128064
     44        1           0.000021975    0.000067552   -0.000017012
     45        6          -0.000605608    0.000040418    0.000069529
     46        1           0.000049333   -0.000032019    0.000063050
     47        1           0.000009385    0.000071089   -0.000034239
     48        1          -0.000242779    0.000255735   -0.000238997
     49        6           0.000604222   -0.000040203   -0.000071312
     50        1          -0.000049339    0.000032089   -0.000062875
     51        1           0.000243184   -0.000256039    0.000239348
     52        1          -0.000009196   -0.000070746    0.000034779
     53        6           0.000024758   -0.000198029    0.000008192
     54        1          -0.000016726   -0.000043514    0.000029901
     55        1          -0.000067315   -0.000070025   -0.000009389
     56        1           0.000114090    0.000038626    0.000037900
     57        6           0.000524484    0.000063543    0.000020063
     58        1          -0.000021723   -0.000067303    0.000017431
     59        1           0.000185440   -0.000262241   -0.000127506
     60        1          -0.000030289    0.000044096    0.000055694
 -------------------------------------------------------------------
 Cartesian Forces:  Max     0.027321761 RMS     0.007144959

 GradGradGradGradGradGradGradGradGradGradGradGradGradGradGradGradGradGrad
 Berny optimization.
 FormGI is forming the generalized inverse of G from B-inverse, IUseBI=4.
 Internal  Forces:  Max     0.017602272 RMS     0.003023641
 Search for a local minimum.
 Step number   1 out of a maximum of  352
 All quantities printed in internal units (Hartrees-Bohrs-Radians)
 Mixed Optimization -- RFO/linear search
 Second derivative matrix not updated -- first step.
 ITU=  0
     Eigenvalues ---    0.00230   0.00230   0.00230   0.00230   0.00230
     Eigenvalues ---    0.00230   0.00230   0.00230   0.00728   0.00753
     Eigenvalues ---    0.00997   0.00997   0.01324   0.01404   0.01685
     Eigenvalues ---    0.01685   0.01741   0.01765   0.01777   0.01813
     Eigenvalues ---    0.01813   0.01858   0.01863   0.01864   0.01916
     Eigenvalues ---    0.01939   0.01946   0.01966   0.01967   0.02035
     Eigenvalues ---    0.02035   0.02111   0.02112   0.02131   0.02132
     Eigenvalues ---    0.02222   0.02222   0.02302   0.02303   0.02375
     Eigenvalues ---    0.02375   0.03377   0.03511   0.04283   0.04283
     Eigenvalues ---    0.04700   0.04700   0.05379   0.05391   0.05427
     Eigenvalues ---    0.05427   0.05451   0.05451   0.05454   0.05454
     Eigenvalues ---    0.05540   0.05540   0.05541   0.05541   0.05548
     Eigenvalues ---    0.05548   0.05600   0.05600   0.15208   0.15209
     Eigenvalues ---    0.15304   0.15311   0.16000   0.16000   0.16000
     Eigenvalues ---    0.16000   0.16000   0.16000   0.16000   0.16000
     Eigenvalues ---    0.16000   0.16000   0.16000   0.16000   0.16000
     Eigenvalues ---    0.16000   0.16000   0.16000   0.16000   0.16000
     Eigenvalues ---    0.16000   0.16000   0.16000   0.16000   0.16000
     Eigenvalues ---    0.16000   0.16000   0.16000   0.16000   0.16000
     Eigenvalues ---    0.22000   0.22000   0.22572   0.22574   0.23779
     Eigenvalues ---    0.23808   0.24552   0.24556   0.25000   0.25000
     Eigenvalues ---    0.25000   0.25000   0.25000   0.25000   0.25000
     Eigenvalues ---    0.27865   0.27866   0.27868   0.27868   0.27930
     Eigenvalues ---    0.27930   0.34167   0.34167   0.34170   0.34170
     Eigenvalues ---    0.34199   0.34200   0.34206   0.34307   0.34308
     Eigenvalues ---    0.34332   0.34332   0.34370   0.34370   0.34381
     Eigenvalues ---    0.34381   0.34382   0.34382   0.34384   0.34385
     Eigenvalues ---    0.35274   0.35274   0.35365   0.35365   0.35419
     Eigenvalues ---    0.35419   0.35577   0.35578   0.35911   0.35965
     Eigenvalues ---    0.35965   0.36106   0.36106   0.37508   0.38929
     Eigenvalues ---    0.39582   0.39742   0.40268   0.40675   0.40686
     Eigenvalues ---    0.41596   0.41670   0.42027   0.42027   0.42435
     Eigenvalues ---    0.43096   0.44506   0.44525   0.44643   0.47143
     Eigenvalues ---    0.47149   0.47738   0.47765   0.50715   0.50715
     Eigenvalues ---    0.51539   0.51540   0.96990   0.96990
 RFO step:  Lambda=-7.12151344D-03 EMin= 2.30000000D-03
 Linear search not attempted -- first point.
 Iteration  1 RMS(Cart)=  0.02278601 RMS(Int)=  0.00009646
 Iteration  2 RMS(Cart)=  0.00021108 RMS(Int)=  0.00001599
 Iteration  3 RMS(Cart)=  0.00000003 RMS(Int)=  0.00001599
 Variable       Old X    -DE/DX   Delta X   Delta X   Delta X     New X
                                 (Linear)    (Quad)   (Total)
    R1        2.58295   0.01760   0.00000   0.03417   0.03415   2.61710
    R2        2.70479  -0.01359   0.00000  -0.03132  -0.03134   2.67345
    R3        2.05087  -0.00026   0.00000  -0.00073  -0.00073   2.05014
    R4        2.68967  -0.01108   0.00000  -0.02668  -0.02668   2.66299
    R5        2.05000  -0.00008   0.00000  -0.00023  -0.00023   2.04977
    R6        2.57317   0.01424   0.00000   0.02730   0.02729   2.60047
    R7        2.04748   0.00004   0.00000   0.00011   0.00011   2.04759
    R8        2.68749  -0.00763   0.00000  -0.01849  -0.01841   2.66908
    R9        2.61016   0.01635   0.00000   0.03415   0.03415   2.64431
   R10        2.60286  -0.00170   0.00000  -0.00390  -0.00388   2.59897
   R11        2.04136  -0.00039   0.00000  -0.00107  -0.00107   2.04029
   R12        2.63612   0.00178   0.00000   0.00292   0.00296   2.63908
   R13        2.68254  -0.00667   0.00000  -0.01525  -0.01530   2.66724
[...]
 ,0.00000025,-0.00000125,0.00000375,-0.00000013,-0.00000003,-0.00000172
 ,0.00000033,0.00000122,0.00000268,-0.00000056,0.00000322,-0.00000109,0
 .00000066,0.00000037,0.00000325,-0.00000146,-0.00000135,-0.00000101,0.
 00000119,0.00000029,0.00000253,-0.00000064,-0.00000314,-0.00000114,0.0
 0000056,-0.00000051,-0.00000099,0.00000127,-0.00000028,0.00000329,-0.0
 0000141,0.00000131,-0.00017049,-0.00004981,-0.00016397,0.00002458,0.00
 024822,-0.00010025,-0.00003054,-0.00015054,0.00002600,0.00027101,0.000
 04547,-0.00033260,0.00006777,0.00073696,0.00084862,0.00070268,0.000184
 26,0.00014019,-0.00013247,-0.00010438,0.00011295,0.00047369,0.00021286
 ,0.00018820,-0.13215063,-0.12469908,0.00027797,0.13898196,0.00007069,0
 .00000282,0.00000193,-0.00004775,0.00000080,0.00000813,-0.00002287,-0.
 00000824,-0.00000114,-0.00002725,0.00003172,-0.00000241,0.00018082,0.0
 0004507,-0.00000164,-0.00022602,-0.00012156,0.00000398,0.00011025,-0.0
 0013219,0.00008425,-0.00015852,0.00007773,-0.00006778,0.00014666,0.000
 10018,0.00001032,0.00000149,0.00000011,-0.00000149,0.00000109,0.000005
 97,-0.00000675,0.00000098,0.00000023,-0.00000123,-0.00000547,0.0000118
 0,0.00000049,0.00005802,0.00005416,-0.00010754,-0.00000104,-0.00001595
 ,0.00000061,-0.00002092,-0.00000664,-0.00002362,0.00020435,0.00005183,
 0.00004129,-0.00016575,0.00016834,-0.00001003,-0.00019097,-0.00021045,
 0.00000273,0.00004941,-0.00005981,0.00000105,-0.00010856,-0.00007359,-
 0.00000140,0.00021771,0.00008743,-0.00000223,-0.00002107,-0.00002565,-
 0.00000063,-0.00002841,0.00004049,0.00000010,0.00005864,0.00002825,-0.
 00000204,-0.00007539,-0.00000658,0.00001028,0.00001387,0.00002350,-0.0
 0000087,0.00000331,-0.00000177,0.00000055,0.00000261,0.00000503,0.0000
 0025,0.00000057,-0.00000449,0.00000044,0.00001553,-0.00000792,0.000000
 27,0.00076985,0.00008316,0.00014432,-0.00128859,0.00059152,0.00036471,
 -0.00950117,-0.01515199,0.00091618,-0.00000870,-0.00000773,0.00000151,
 0.00001196,0.00000173,-0.00000072,-0.00000213,0.00000594,-0.00000085,0
 .00000050,0.00000038,-0.00000132,-0.00000284,-0.00000191,0.00000009,0.
 00000039,-0.00000022,0.00000201,-0.00000480,0.00000046,-0.00000397,0.0
 0000110,-0.00000069,0.00000037,-0.00000339,0.00000170,0.00000186,0.000
 00118,-0.00000231,-0.00000084,-0.00000479,0.00000036,0.00000276,0.0000
 0149,-0.00000008,0.00000070,0.00000129,-0.00000266,0.00000068,-0.00000
 348,0.00000154,-0.00000153,0.00008984,0.00048964,0.00128052,0.00028045
 ,0.00016812,0.00002765,0.00006291,0.00003397,-0.00006782,0.00005372,0.
 00069370,-0.00053787,0.00205024,-0.00131469,-0.00386003,-0.00092984,-0
 .00093495,-0.00020942,0.00013445,0.00042664,0.00004371,-0.00008054,0.0
 0021108,0.00007855,-0.12333853,-0.23114374,0.00141144,0.13544004,0.250
 01982,-0.00002233,0.00000224,-0.00000338,0.00001425,-0.00000418,-0.000
 00892,0.00000122,-0.00002709,-0.00000203,-0.00000996,0.00001473,0.0000
 0347,0.00000758,0.00002290,-0.00000040,-0.00001620,-0.00000702,0.00000
 547,0.00004733,-0.00003398,-0.00003412,-0.00002965,0.00004806,-0.00002
 273,-0.00000669,0.00001012,0.00000239,-0.00000109,-0.00000108,0.000002
 33,0.00000302,0.00000187,0.00000928,-0.00000082,-0.00000030,0.00000083
 ,-0.00000010,-0.00000006,0.00000191,0.00005211,-0.00000172,0.00003640,
 0.00002340,-0.00001641,-0.00000107,-0.00008003,-0.00001537,-0.00002475
 ,0.00007498,-0.00000969,0.00001304,-0.00005475,0.00005730,-0.00000008,
 -0.00006761,-0.00005937,0.00000309,0.00000538,-0.00002594,-0.00000155,
 -0.00000973,-0.00000844,-0.00000073,0.00007570,0.00002681,0.00000545,-
 0.00002005,0.00000276,0.00000338,-0.00002758,0.00000055,-0.00000037,0.
 00004186,0.00001036,0.00000025,-0.00004292,-0.00000686,-0.00001300,0.0
 0000379,0.00001126,-0.00000604,0.00000090,0.00000015,0.00000094,0.0000
 0094,0.00000103,-0.00000051,0.00000029,-0.00000139,0.00000059,-0.00001
 278,0.00000248,0.00000013,0.00050901,0.00010197,0.00006838,-0.00136783
 ,0.00049483,0.00058144,-0.01537876,-0.02184324,-0.00066795,0.00000704,
 -0.00000207,-0.00000117,0.00000172,-0.00000046,0.00000044,-0.00000090,
 0.00000133,0.00000087,0.00000036,-0.00000044,-0.00000022,-0.00000091,-
 0.00000019,-0.00000003,0.00000037,0.00000009,-0.00000047,-0.00000020,0
 .00000049,-0.00000045,0.00000033,0.00000003,-0.00000044,-0.00000085,0.
 00000007,0.00000014,0.00000029,-0.00000085,-0.00000011,-0.00000025,0.0
 0000095,0.00000156,0.00000016,-0.00000046,-0.00000050,0.00000024,-0.00
 000059,0.00000016,-0.00000071,0.00000011,-0.00000037,-0.00074481,-0.00
 098215,0.00172578,0.00022887,0.00020487,0.00028650,-0.00004329,0.00005
 177,-0.00013309,0.00032654,0.00049815,-0.00045807,0.00175405,-0.002372
 48,-0.00464578,-0.00087073,-0.00169597,0.00023482,0.00014419,-0.000242
 94,0.00017676,0.00008363,0.00026676,-0.00009274,0.00128285,0.00269578,
 -0.04791715,-0.00182153,0.00087694,0.05079853,-0.00021280,0.00002439,0
 .00000129,0.00013566,-0.00001222,0.00000389,0.00003230,-0.00020124,-0.
 00000211,-0.00000434,0.00004139,-0.00000354,-0.00007353,0.00013279,-0.
 00000215,0.00009749,0.00003179,0.00001820,-0.00000832,-0.00003577,0.00
 004286,0.00009910,0.00020173,-0.00015040,-0.00011761,-0.00003712,0.000
 00970,-0.00000793,-0.00000787,-0.00000024,0.00000599,0.00000627,-0.000
 00301,-0.00000700,-0.00000336,-0.00000121,0.00000918,-0.00001122,0.000
 00274,0.00002060,0.00003097,-0.00003731,0.00016774,-0.00010968,0.00000
 140,-0.00059255,0.00009258,-0.00002562,0.00032966,-0.00016831,0.000088
 51,-0.00024231,0.00023886,-0.00000958,-0.00031365,-0.00013816,0.000003
 72,-0.00001411,-0.00013807,0.00000012,0.00003761,0.00002339,-0.0000081
 4,0.00031258,0.00001433,0.00000729,-0.00009127,0.00007248,-0.00001236,
 -0.00019483,-0.00004700,0.00000131,0.00024463,0.00003105,-0.00000599,-
 0.00004718,-0.00002553,0.00001073,0.00001599,0.00000642,0.00000034,-0.
 00000028,0.00000046,0.00000077,0.00000452,0.00001196,0.00000348,-0.000
 00695,-0.00000518,0.00000162,-0.00008922,0.00002324,0.00000164,0.00132
 872,-0.00009528,0.00026486,-0.00096517,0.00162587,0.00194873,-0.006577
 48,0.00089626,-0.00108413,0.00005004,-0.00000622,0.00000050,0.00002168
 ,-0.00000821,-0.00000040,-0.00000665,0.00000853,-0.00000047,0.00000471
 ,-0.00000059,0.00000416,-0.00001017,0.00000061,0.00000010,0.00000462,-
 0.00000100,-0.00000386,-0.00000528,0.00000171,-0.00000876,0.00000284,-
 0.00000175,-0.00000108,-0.00000877,0.00000300,0.00000318,0.00000324,-0
 .00000340,-0.00000085,-0.00000477,0.00000172,0.00000821,0.00000303,-0.
 00000145,0.00000150,0.00000329,-0.00000344,0.00000080,-0.00000884,0.00
 000282,-0.00000286,-0.00009710,-0.00019292,-0.00077481,0.00040130,-0.0
 0013277,0.00006072,0.00059434,-0.00021563,0.00052766,-0.00003050,0.000
 06474,0.00004054,0.00034948,-0.00067519,-0.00054644,0.00034127,-0.0000
 2933,0.00006496,-0.00000434,-0.00000880,0.00007339,0.00062595,0.000360
 55,0.00005296,-0.29207769,0.06429731,-0.00140182,-0.01573875,0.0054035
 9,-0.00047296,0.31690366,0.00023982,-0.00001902,-0.00000010,-0.0001630
 7,-0.00000057,0.00000288,-0.00005231,0.00017395,0.00000121,0.00003119,
 0.00002295,-0.00000387,0.00017664,-0.00008825,0.00000295,-0.00025873,-
 0.00008683,-0.00002102,0.00007725,-0.00007736,0.00003317,-0.00016659,-
 0.00010092,0.00006790,0.00020196,0.00006733,-0.00001280,0.00000534,0.0
 0000402,-0.00000033,-0.00000170,0.00000210,-0.00000274,0.00000484,0.00
 000298,0.00000036,-0.00001207,0.00001691,0.,0.00002756,0.00000581,-0.0
 0003980,-0.00021293,0.00011019,-0.00000005,0.00057125,-0.00013745,0.00
 014683,-0.00032888,0.00013532,-0.00003416,0.00023970,-0.00020246,0.000
 00961,0.00033236,0.00014914,-0.00000555,0.00002005,0.00014844,-0.00000
 400,-0.00007637,-0.00004012,0.00000268,-0.00028237,0.00002795,-0.00000
 230,0.00009257,-0.00011690,0.00000465,0.00022901,0.00006274,-0.0000014
 5,-0.00029291,-0.00002066,0.00000244,0.00003550,0.00001337,0.00001060,
 -0.00001461,-0.00001335,-0.00000028,-0.00000101,0.00000160,-0.00000149
 ,-0.00000538,-0.00000620,0.00000010,0.00000406,0.00000763,-0.00000137,
 0.00012179,-0.00002821,-0.00000021,-0.00034672,0.00022365,-0.00016910,
 0.00150603,-0.00175304,-0.00329128,0.01713892,-0.00583015,0.00033479,-
 0.00007502,0.00000530,0.00000015,0.00000212,0.00000700,-0.00000005,0.0
 0000307,-0.00000025,-0.00000022,-0.00000259,0.00000082,-0.00000384,0.0
 0000441,-0.00000184,0.00000002,-0.00000257,0.00000078,0.00000402,-0.00
 000549,-0.00000300,0.00000187,-0.00000073,0.00000065,0.00000048,0.0000
 0300,0.00000134,0.00000071,-0.00000146,0.00000170,0.00000007,-0.000005
 42,-0.00000316,-0.00000197,-0.00000069,0.00000082,-0.00000023,-0.00000
 146,0.00000159,-0.00000017,0.00000292,0.00000128,-0.00000072,-0.000221
 19,0.00030027,0.00110649,-0.00015514,-0.00013901,0.00011837,-0.0002344
 2,0.00042862,-0.00012811,-0.00015169,0.00003432,-0.00005663,0.00130037
 ,0.00051463,0.00067741,-0.00032939,0.00028415,0.00016885,0.00002376,-0
 .00011503,-0.00003088,-0.00064684,-0.00025582,-0.00036713,0.06377188,-
 0.06560496,0.00098380,-0.02647731,0.00880486,-0.00024592,-0.07179608,0
 .06749191,0.00018719,-0.00000834,-0.00000063,-0.00012410,0.00000144,0.
 00000103,-0.00003621,0.00013172,0.00000674,0.00001886,0.00000490,-0.00
 000220,0.00014619,-0.00006384,0.00000425,-0.00018486,-0.00007085,-0.00
 003993,0.00004736,-0.00005877,0.00002211,-0.00003239,-0.00008202,0.000
 15223,0.00016460,0.00006901,-0.00002813,0.00000568,0.00000464,-0.00000
 019,-0.00000288,0.00000187,-0.00000102,0.00000471,0.00000292,0.0000010
 2,-0.00000868,0.00001348,-0.00000197,0.00000093,-0.00000586,-0.0000202
 0,-0.00017353,0.00009938,0.00000340,0.00032090,0.00007189,0.00019865,-
 0.00025629,0.00008223,-0.00007587,0.00019708,-0.00019375,0.00001569,0.
 00028531,0.00015541,-0.00000916,0.00001458,0.00011301,0.00000129,-0.00
 003677,-0.00001973,0.00000202,-0.00026684,-0.00000564,0.00001883,0.000
 07884,-0.00008829,0.00000718,0.00017188,0.00003862,-0.00000061,-0.0002
 2373,-0.00002434,0.00000470,0.00004302,0.00003718,-0.00003065,-0.00001
 367,-0.00001085,-0.00000131,-0.00000069,-0.00000058,-0.00000468,-0.000
 00428,-0.00000603,-0.00000059,0.00000369,0.00000540,-0.00000289,0.0001
 0049,-0.00002346,-0.00000135,0.00036209,-0.00019303,0.00001433,0.00125
 827,-0.00322454,-0.00347637,0.02556661,-0.00685842,-0.00123029,-0.0000
 5939,0.00000463,0.00000078,-0.00000136,0.00000660,-0.00000013,0.000003
 34,-0.00000156,-0.00000023,-0.00000232,0.00000088,-0.00000310,0.000004
 28,-0.00000121,0.00000003,-0.00000240,0.00000065,0.00000339,-0.0000034
 2,-0.00000304,0.00000237,-0.00000084,0.00000072,0.00000054,0.00000318,
 0.00000071,0.00000013,-0.00000135,0.00000186,0.00000014,-0.00000340,-0
 .00000313,-0.00000278,-0.00000051,0.00000113,0.,-0.00000128,0.00000148
 ,-0.00000041,0.00000282,0.00000067,0.00000002,0.00114891,-0.00003685,0
 .00133270,-0.00031527,0.00005530,0.00036534,-0.00052659,0.00009657,-0.
 00052361,-0.00002141,0.00006172,-0.00013355,0.00051553,0.00104908,0.00
 089889,-0.00005758,0.00035850,-0.00000009,-0.00017044,-0.00006227,-0.0
 0003075,-0.00049748,-0.00018929,0.00015971,-0.00250372,0.00132239,-0.0
 4844348,0.00046896,0.00017415,-0.00096842,0.00111897,0.00178656,0.0504
 7741,0.00004762,-0.00000134,-0.00000112,-0.00002963,0.00000257,-0.0000
 0289,-0.00000822,0.00004158,-0.00000083,-0.00000469,-0.00000271,0.0000
 0162,0.00002392,-0.00002542,0.00000036,-0.00003897,-0.00001052,0.00000
 310,0.00002509,-0.00001304,-0.00002596,-0.00001129,-0.00003047,0.00001
 079,0.00002661,0.00000547,-0.00000504,0.00000182,0.00000219,0.00000056
 ,-0.00000029,0.00000082,0.00000222,0.00000184,0.00000100,0.00000031,-0
 .00000290,0.00000283,-0.00000002,0.00001735,-0.00001256,0.00001911,-0.
 00006549,0.00003318,-0.00000150,0.00004256,-0.00002744,0.00001744,-0.0
 0012388,0.00003384,-0.00000824,0.00009780,-0.00008372,0.00000173,0.000
 11306,0.00007196,0.00000071,-0.00000516,0.00004804,-0.00000151,0.00000
 185,0.00001760,0.00000150,-0.00010770,0.00000587,-0.00000024,0.0000329
 5,-0.00002688,-0.00000038,0.00006081,0.00000180,-0.00000097,-0.0000845
 5,-0.00000794,0.00000203,0.00002218,0.00000954,0.00000536,-0.00000720,
 -0.00000722,-0.00000219,-0.00000056,0.00000051,0.00000070,-0.00000148,
 -0.00000475,-0.00000047,0.00000151,0.00000244,-0.00000005,0.00003375,-
 0.00000765,0.00000012,-0.00019438,0.00008030,-0.00014090,0.00077113,-0
 .00077773,0.00062816,-0.00037013,-0.00392630,0.00643496,-0.00002015,0.
 00000370,-0.00000096,-0.00000628,0.00000264,0.00000044,0.00000202,-0.0
 0000249,0.00000040,-0.00000150,-0.00000002,-0.00000127,0.00000324,-0.0
 0000013,-0.00000008,-0.00000133,0.00000038,0.00000093,0.00000087,-0.00
 000068,0.00000259,-0.00000079,0.00000060,0.00000005,0.00000284,-0.0000
 0073,-0.00000084,-0.00000109,0.00000110,0.00000033,0.00000081,-0.00000
 068,-0.00000179,-0.00000119,0.00000019,-0.00000077,-0.00000114,0.00000
 148,-0.00000020,0.00000302,-0.00000067,0.00000051,-0.00023135,0.000836
 93,0.00095112,0.00072643,-0.00011075,0.00038413,0.00040283,-0.00014486
 ,0.00032024,0.00002375,0.00027231,-0.00023676,-0.00020028,0.00008501,-
 0.00057619,-0.00011372,-0.00009230,0.00016087,0.00025713,-0.00023992,-
 0.00012327,-0.00000818,0.00009516,-0.00012670,-0.05918208,0.02774268,-
 0.04530581,0.00377372,-0.00917017,0.01641363,-0.00459184,0.01615577,-0
 .02671061,0.05889891,-0.00004639,0.00000460,-0.00000261,0.00003452,-0.
 00000987,-0.00000582,0.00000671,-0.00003397,-0.00000090,-0.00000323,0.
 00001081,0.00000249,-0.00003890,0.00002080,-0.00000085,0.00003653,0.00
 002257,0.00000248,0.00001794,-0.00000781,-0.00002140,0.00000579,0.0000
 1964,-0.00000159,-0.00004521,-0.00001266,0.00000042,-0.00000101,-0.000
 00184,0.00000195,0.00000364,0.00000331,0.00000522,-0.00000236,-0.00000
 038,0.00000117,0.00000156,-0.00000346,0.00000128,0.00002941,-0.0000073
 9,0.00001603,0.00002554,-0.00002266,-0.00000163,-0.00008826,-0.0000040
 9,-0.00000191,0.00003817,-0.00002564,-0.00000957,-0.00002675,0.0000315
 1,0.00000105,-0.00003661,0.00000256,0.00000168,-0.00000847,-0.00001796
 ,-0.00000236,0.00001446,0.00001085,0.00000114,0.00003942,-0.00001208,0
 .00000156,-0.00001333,0.00001231,-0.00000001,-0.00002892,-0.00001146,-
 0.00000103,0.00003240,0.00000131,-0.00000112,0.00000952,-0.00000430,-0
 .00000454,0.00000039,-0.00000570,-0.00000033,-0.00000087,0.00000012,0.
 00000141,0.00000058,0.00000220,0.00000060,-0.00000231,-0.00000011,0.00
 000111,-0.00001624,0.00000513,0.00000015,0.00014796,-0.00007633,0.0000
 8975,-0.00086600,0.00079200,-0.00009797,-0.00403030,0.00893469,-0.0161
 9137,0.00000734,0.00000021,-0.00000212,0.00000526,-0.00000249,0.000001
 13,-0.00000150,0.00000194,0.00000097,0.00000094,-0.00000077,0.00000064
 ,-0.00000197,0.00000011,0.00000003,0.00000094,0.00000022,-0.00000169,-
 0.00000155,0.00000046,-0.00000139,0.00000060,-0.00000005,-0.00000103,-
 0.00000175,0.00000065,0.00000072,0.00000067,-0.00000069,0.00000003,-0.
 00000176,0.00000092,0.00000301,0.00000021,-0.00000117,-0.00000054,0.00
 000058,-0.00000009,0.00000044,-0.00000151,0.00000079,-0.00000115,0.000
 65325,-0.00201030,-0.00272266,-0.00012995,0.00087412,-0.00102806,-0.00
 013504,-0.00014433,-0.00003703,0.00025034,0.00016025,-0.00020198,0.000
 05373,0.00147371,-0.00054764,0.00012452,0.00019378,0.00016659,0.000057
 48,-0.00018088,0.00013892,-0.00008696,-0.00009524,0.00002306,0.0275890
 4,-0.12085442,0.11714000,0.00679615,-0.01303430,0.02219989,0.00046199,
 -0.00441158,0.00547897,-0.03083044,0.12841245,-0.00007360,0.00000462,0
 .00000277,0.00004743,-0.00000019,0.00000679,0.00001532,-0.00004886,0.0
 0000247,0.00000894,0.00000627,-0.00000195,-0.00006686,0.00002317,-0.00
 000045,0.00009116,0.00004107,-0.00000134,-0.00002621,0.00001918,0.0000
 3165,0.00010751,0.00001981,-0.00001041,-0.00007185,-0.00002228,0.00000
 615,-0.00000263,-0.00000201,-0.00000203,0.00000075,-0.00000059,-0.0000
 0616,-0.00000181,-0.00000081,-0.00000123,0.00000377,-0.00000602,-0.000
 00242,-0.00001053,0.00000241,-0.00003347,0.00004126,-0.00002437,0.0000
 0187,-0.00019417,0.00005773,-0.00002408,0.00004164,-0.00006494,0.00000
 437,-0.00001208,0.00000116,-0.00000298,-0.00001254,0.00003817,-0.00000
 496,-0.00001529,-0.00001801,0.00000574,0.00004317,0.00002372,-0.000006
 24,0.00000099,-0.00003231,0.00002606,-0.00001253,0.00001867,0.00001043
 ,-0.00003526,-0.00002246,0.00000340,0.00003677,-0.00000392,0.00000307,
 0.00001384,0.00000600,-0.00005144,-0.00000147,-0.00000533,-0.00000910,
 -0.00000089,-0.00000046,-0.00000257,0.00000056,0.00000095,-0.00000302,
 -0.00000180,-0.00000012,-0.00000170,-0.00002595,0.00000765,-0.00000074
 ,0.00096705,-0.00030723,0.00030001,-0.00170340,0.00074082,0.00085965,-
 0.00514734,0.01379637,-0.02149038,0.00001436,0.00000053,0.00000285,0.0
 0000221,-0.00000240,-0.00000161,-0.00000096,0.00000039,-0.00000089,0.0
 0000110,0.00000050,0.00000196,-0.00000173,0.00000071,-0.00000006,0.000
 00098,-0.00000091,-0.00000073,-0.00000005,0.00000018,-0.00000201,0.000
 00005,-0.00000103,0.00000078,-0.00000108,0.00000048,0.00000054,0.00000
 037,0.00000037,-0.00000043,0.00000021,0.00000018,0.00000006,0.00000078
 ,0.00000062,0.00000136,0.00000049,-0.00000073,-0.00000049,-0.00000147,
 0.00000021,0.00000004,0.00183630,-0.00465223,-0.00373856,-0.00039343,0
 .00094596,-0.00153771,-0.00005635,-0.00010000,0.00036913,0.00009327,-0
 .00002494,0.00029522,0.00012328,0.00170868,0.00073370,0.00024054,-0.00
 011137,0.00039756,-0.00024980,-0.00104854,0.00040277,-0.00001994,-0.00
 011528,-0.00003633,-0.04411376,0.11516519,-0.23219101,0.00041989,-0.00
 057964,0.00104233,0.00018926,-0.00104123,0.00133965,0.04791150,-0.1243
 9358,0.25331414\\-0.00000504,-0.00000241,0.00000032,0.00000186,0.00000
 091,0.,-0.00000318,-0.00000561,0.00000010,0.00000917,-0.00001068,-0.00
 000014,0.00000648,0.00000696,0.00000033,-0.00000955,0.00001066,-0.0000
 0136,-0.00000608,0.00000109,0.00000057,0.00001006,0.00000547,-0.000000
 58,-0.00000474,-0.00000990,0.00000125,-0.00000191,0.00000068,-0.000000
 17,0.00000112,0.00000125,0.00000010,0.00000038,-0.00000143,-0.00000002
 ,0.00000005,0.00000051,0.00000019,0.00000024,0.00000070,-0.00000035,0.
 00001034,0.00000196,0.00000049,-0.00001027,-0.00000355,0.00000019,0.00
 000486,0.00001019,-0.00000099,-0.00001100,-0.00000553,0.00000018,0.000
 00934,-0.00001061,0.00000117,0.00000609,-0.00000129,-0.00000039,-0.000
 00944,0.00001076,0.,-0.00000599,-0.00000684,-0.00000023,0.00000314,0.0
 0000591,-0.00000012,-0.00000188,-0.00000080,0.,0.00000514,0.00000239,-
 0.00000033,-0.00000022,-0.00000033,-0.00000019,-0.00000034,0.00000146,
 0.00000002,-0.00000006,-0.00000074,0.00000037,0.00000192,-0.00000064,0
 .00000017,-0.00000109,-0.00000123,-0.00000010,0.00000153,-0.00000075,-
 0.00000098,-0.00000147,0.00000125,0.00000079,0.00000384,0.00000279,-0.
 00000009,0.00000064,-0.00000124,-0.00000087,-0.00000280,-0.00000067,-0
 .00000106,-0.00000113,-0.00000047,0.00000175,0.00000115,0.00000241,-0.
 00000040,-0.00000021,-0.00000019,0.00000016,-0.00000066,-0.00000028,0.
 00000010,-0.00000025,-0.00000026,0.00000022,-0.00000125,0.00000152,0.0
 0000043,-0.00000002,0.00000014,0.00000008,0.00000074,-0.00000028,-0.00
 000073,0.00000036,-0.00000010,0.00000003,-0.00000079,0.00000231,-0.000
 00185,-0.00000006,0.00000005,0.00000034,0.00000050,0.,0.00000041,0.000
 00035,-0.00000045,0.00000046,0.00000118,-0.00000246,0.00000169,0.00000
 005,0.,-0.00000023,-0.00000037,0.00000045,-0.00000036,-0.00000051,0.00
 000003,-0.00000050,-0.00000156,-0.00000241,0.00000037,0.00000030,0.000
 00028,-0.00000002,0.00000021,0.00000021,-0.00000029,0.00000062,0.00000
 024,-0.00000007,0.00000131,-0.00000164,-0.00000047,-0.00000033,0.00000
 007,-0.00000005,-0.00000073,0.00000029,0.00000071,-0.00000002,-0.00000
 013,-0.00000007\\\@


 THEORY:  SUPPOSITION WHICH HAS SCIENTIFIC BASIS,
          BUT NOT EXPERIMENTALLY PROVEN.
 FACT:    A THEORY WHICH HAS BEEN PROVEN BY ENOUGH 
          MONEY TO PAY FOR THE EXPERIMENTS.

                          --  THE WIZARD OF ID
 Job cpu time:       0 days 13 hours 23 minutes 46.9 seconds.
 Elapsed time:       0 days  3 hours 20 minutes 58.8 seconds.
 File lengths (MBytes):  RWF=   8416 Int=      0 D2E=      0 Chk=     52 Scr=      1
 Normal termination of Gaussian 16 at Wed Jan 26 03:52:08 2022.
