 Entering Gaussian System, Link 0=g16
 Input=C19H16OS1.com
 Output=C19H16OS1.log
 Initial command:
 /usr/local/g16/l1.exe "/home/padawan/ingrid/Gau-8307.inp" -scrdir="/home/padawan/ingrid/"
 Entering Link 1 = /usr/local/g16/l1.exe PID=      8309.
  
 Copyright (c) 1988,1990,1992,1993,1995,1998,2003,2009,2016,
            Gaussian, Inc.  All Rights Reserved.
  
 This is part of the Gaussian(R) 16 program.  It is based on
 the Gaussian(R) 09 system (copyright 2009, Gaussian, Inc.),
 the Gaussian(R) 03 system (copyright 2003, Gaussian, Inc.),
 the Gaussian(R) 98 system (copyright 1998, Gaussian, Inc.),
 the Gaussian(R) 94 system (copyright 1995, Gaussian, Inc.),
 the Gaussian 92(TM) system (copyright 1992, Gaussian, Inc.),
 the Gaussian 90(TM) system (copyright 1990, Gaussian, Inc.),
 the Gaussian 88(TM) system (copyright 1988, Gaussian, Inc.),
 the Gaussian 86(TM) system (copyright 1986, Carnegie Mellon
 University), and the Gaussian 82(TM) system (copyright 1983,
 Carnegie Mellon University). Gaussian is a federally registered
 trademark of Gaussian, Inc.
  
 This software contains proprietary and confidential information,
 including trade secrets, belonging to Gaussian, Inc.
  
 This software is provided under written license and may be
 used, copied, transmitted, or stored only in accord with that
 written license.
  
 The following legend is applicable only to US Government
 contracts under FAR:
  
                    RESTRICTED RIGHTS LEGEND
  
 Use, reproduction and disclosure by the US Government is
 subject to restrictions as set forth in subparagraphs (a)
 and (c) of the Commercial Computer Software - Restricted
 Rights clause in FAR 52.227-19.
  
 Gaussian, Inc.
 340 Quinnipiac St., Bldg. 40, Wallingford CT 06492
  
  
 ---------------------------------------------------------------
 Warning -- This program may not be used in any manner that
 competes with the business of Gaussian, Inc. or will provide
 assistance to any competitor of Gaussian, Inc.  The licensee
 of this program is prohibited from giving any competitor of
 Gaussian, Inc. access to this program.  By using this program,
 the user acknowledges that Gaussian, Inc. is engaged in the
 business of creating and licensing software in the field of
 computational chemistry and represents and warrants to the
 licensee that it is not a competitor of Gaussian, Inc. and that
 it will not use this program in any manner prohibited above.
 ---------------------------------------------------------------
  

 Cite this work as:
 Gaussian 16, Revision A.03,
 M. J. Frisch, G. W. Trucks, H. B. Schlegel, G. E. Scuseria, 
 M. A. Robb, J. R. Cheeseman, G. Scalmani, V. Barone, 
 G. A. Petersson, H. Nakatsuji, X. Li, M. Caricato, A. V. Marenich, 
 J. Bloino, B. G. Janesko, R. Gomperts, B. Mennucci, H. P. Hratchian, 
 J. V. Ortiz, A. F. Izmaylov, J. L. Sonnenberg, D. Williams-Young, 
 F. Ding, F. Lipparini, F. Egidi, J. Goings, B. Peng, A. Petrone, 
 T. Henderson, D. Ranasinghe, V. G. Zakrzewski, J. Gao, N. Rega, 
 G. Zheng, W. Liang, M. Hada, M. Ehara, K. Toyota, R. Fukuda, 
 J. Hasegawa, M. Ishida, T. Nakajima, Y. Honda, O. Kitao, H. Nakai, 
 T. Vreven, K. Throssell, J. A. Montgomery, Jr., J. E. Peralta, 
 F. Ogliaro, M. J. Bearpark, J. J. Heyd, E. N. Brothers, K. N. Kudin, 
 V. N. Staroverov, T. A. Keith, R. Kobayashi, J. Normand, 
 K. Raghavachari, A. P. Rendell, J. C. Burant, S. S. Iyengar, 
 J. Tomasi, M. Cossi, J. M. Millam, M. Klene, C. Adamo, R. Cammi, 
 J. W. Ochterski, R. L. Martin, K. Morokuma, O. Farkas, 
 J. B. Foresman, and D. J. Fox, Gaussian, Inc., Wallingford CT, 2016.
 
 ******************************************
 Gaussian 16:  ES64L-G16RevA.03 25-Dec-2016
                17-Feb-2022 
 ******************************************
 %nproc=30
 Will use up to   30 processors via shared memory.
 %mem=28GB
 %Chk=C19H16OS1.chk
 ----------------------------------------
 #n B3LYP/6-31G(d) Opt freq TD(nstates=1)
 ----------------------------------------
 1/18=20,19=15,26=3,38=1/1,3;
 2/9=110,12=2,17=6,18=5,40=1/2;
 3/5=1,6=6,7=1,11=9,25=1,30=1,71=1,74=-5/1,2,3,8;
 4//1;
 5/5=2,38=5/2;
 8/6=1,10=2,108=1/1;
 9/15=2,41=1,42=1,70=2/14;
 10/5=4/2;
 6/7=2,8=2,9=2,10=2/1;
 7/12=6,13=5/1,2,3,16;
 1/18=20,19=15,26=3/3(2);
 2/9=110/2;
 99//99;
 2/9=110/2;
 3/5=1,6=6,7=1,11=9,25=1,30=1,71=1,74=-5/1,2,3,8;
 4/5=5,16=3,69=1/1;
 5/5=2,38=5/2;
 8/6=1,10=2,108=1/1;
 9/15=2,41=1,42=1,49=4,70=2/14;
 10/5=4/2;
 7/12=6,13=5/1,2,3,16;
 1/18=20,19=15,26=3/3(-8);
 2/9=110/2;
 6/7=2,8=2,9=2,10=2/1;
 99//99;
 -----
 Title
 -----
 Symbolic Z-matrix:
 Charge =  0 Multiplicity = 1
 O                     1.68347   2.17086   8.03844 
 H                     0.78009   2.32611   7.7464 
 C                     0.98552   6.63842   9.5792 
 H                     0.491     7.15053   10.31821 
 C                     1.17228   5.28647   9.80384 
 H                     0.75409   4.89331   10.69003 
 C                     1.80278   4.47048   8.86885 
 C                     2.28613   5.06869   7.67746 
 C                     2.98087   4.34808   6.64951 
 H                     3.11578   3.40969   6.79359 
 C                     3.39294   4.94576   5.51311 
 H                     3.92799   4.42968   4.81826 
 C                     3.17895   6.32527   5.25361 
 C                     3.60417   6.95422   4.09087 
 H                     4.07024   6.41402   3.52461 
 C                     3.4012    8.29345   3.89179 
 H                     3.72761   8.72424   3.15279 
 C                     2.75846   9.03633   4.83918 
 H                     2.5743    9.98002   4.69432 
 C                     2.30433   8.46646   6.02128 
 C                     1.63972   9.20376   7.03296 
 H                     1.49135   10.18666   6.8943 
 C                     1.21633   8.65853   8.14766 
 H                     0.73879   9.09514   8.90061 
 C                     1.41242   7.2475    8.42266 
 C                     2.51373   7.07529   6.24205 
 C                     2.06785   6.45509   7.44971 
 C                     1.99153   2.98579   9.19033 
 C                     1.11002   2.49964   10.3306 
 H                     0.13613   2.70496   10.17877 
 H                     1.20838   1.49422   10.41116 
 H                     1.39499   2.95665   11.20904 
 C                     3.45488   2.70629   9.53504 
 H                     4.08859   2.93281   8.75343 
 H                     3.71843   3.25073   10.30271 
 H                     3.59454   1.69557   9.74497 
 

 GradGradGradGradGradGradGradGradGradGradGradGradGradGradGradGradGradGrad
 Berny optimization.
 Initialization pass.
                           ----------------------------
                           !    Initial Parameters    !
                           ! (Angstroms and Degrees)  !
 --------------------------                            --------------------------
 ! Name  Definition              Value          Derivative Info.                !
 --------------------------------------------------------------------------------
 ! R1    R(1,2)                  0.962          estimate D2E/DX2                !
 ! R2    R(1,28)                 1.4443         estimate D2E/DX2                !
 ! R3    R(3,4)                  1.0261         estimate D2E/DX2                !
 ! R4    R(3,5)                  1.3832         estimate D2E/DX2                !
 ! R5    R(3,25)                 1.3751         estimate D2E/DX2                !
 ! R6    R(5,6)                  1.0558         estimate D2E/DX2                !
 ! R7    R(5,7)                  1.392          estimate D2E/DX2                !
 ! R8    R(7,8)                  1.4181         estimate D2E/DX2                !
 ! R9    R(7,28)                 1.5308         estimate D2E/DX2                !
 ! R10   R(8,9)                  1.4348         estimate D2E/DX2                !
 ! R11   R(8,27)                 1.4218         estimate D2E/DX2                !
 ! R12   R(9,10)                 0.9589         estimate D2E/DX2                !
 ! R13   R(9,11)                 1.3485         estimate D2E/DX2                !
 ! R14   R(11,12)                1.0176         estimate D2E/DX2                !
 ! R15   R(11,13)                1.4199         estimate D2E/DX2                !
 ! R16   R(13,14)                1.3887         estimate D2E/DX2                !
 ! R17   R(13,26)                1.4079         estimate D2E/DX2                !
 ! R18   R(14,15)                0.9109         estimate D2E/DX2                !
 ! R19   R(14,16)                1.3691         estimate D2E/DX2                !
 ! R20   R(16,17)                0.9156         estimate D2E/DX2                !
 ! R21   R(16,18)                1.3647         estimate D2E/DX2                !
 ! R22   R(18,19)                0.9723         estimate D2E/DX2                !
 ! R23   R(18,20)                1.3886         estimate D2E/DX2                !
 ! R24   R(20,21)                1.4173         estimate D2E/DX2                !
 ! R25   R(20,26)                1.4241         estimate D2E/DX2                !
 ! R26   R(21,22)                1.0037         estimate D2E/DX2                !
 ! R27   R(21,23)                1.3111         estimate D2E/DX2                !
 ! R28   R(23,24)                0.9928         estimate D2E/DX2                !
 ! R29   R(23,25)                1.4509         estimate D2E/DX2                !
 ! R30   R(25,27)                1.4157         estimate D2E/DX2                !
 ! R31   R(26,27)                1.429          estimate D2E/DX2                !
 ! R32   R(28,29)                1.5211         estimate D2E/DX2                !
 ! R33   R(28,33)                1.5292         estimate D2E/DX2                !
 ! R34   R(29,30)                1.0068         estimate D2E/DX2                !
 ! R35   R(29,31)                1.0134         estimate D2E/DX2                !
 ! R36   R(29,32)                1.0304         estimate D2E/DX2                !
 ! R37   R(33,34)                1.0314         estimate D2E/DX2                !
 ! R38   R(33,35)                0.9773         estimate D2E/DX2                !
 ! R39   R(33,36)                1.0417         estimate D2E/DX2                !
 ! A1    A(2,1,28)             110.5703         estimate D2E/DX2                !
 ! A2    A(4,3,5)              115.8436         estimate D2E/DX2                !
 ! A3    A(4,3,25)             122.2962         estimate D2E/DX2                !
 ! A4    A(5,3,25)             121.8458         estimate D2E/DX2                !
 ! A5    A(3,5,6)              116.5388         estimate D2E/DX2                !
 ! A6    A(3,5,7)              121.672          estimate D2E/DX2                !
 ! A7    A(6,5,7)              121.6612         estimate D2E/DX2                !
 ! A8    A(5,7,8)              118.1273         estimate D2E/DX2                !
 ! A9    A(5,7,28)             118.9044         estimate D2E/DX2                !
 ! A10   A(8,7,28)             122.9266         estimate D2E/DX2                !
 ! A11   A(7,8,9)              123.7176         estimate D2E/DX2                !
 ! A12   A(7,8,27)             119.5765         estimate D2E/DX2                !
 ! A13   A(9,8,27)             116.6987         estimate D2E/DX2                !
 ! A14   A(8,9,10)             116.8696         estimate D2E/DX2                !
 ! A15   A(8,9,11)             121.9463         estimate D2E/DX2                !
 ! A16   A(10,9,11)            121.1553         estimate D2E/DX2                !
 ! A17   A(9,11,12)            120.7535         estimate D2E/DX2                !
 ! A18   A(9,11,13)            122.5861         estimate D2E/DX2                !
 ! A19   A(12,11,13)           116.5632         estimate D2E/DX2                !
 ! A20   A(11,13,14)           123.1551         estimate D2E/DX2                !
 ! A21   A(11,13,26)           117.4177         estimate D2E/DX2                !
 ! A22   A(14,13,26)           119.4239         estimate D2E/DX2                !
 ! A23   A(13,14,15)           114.1172         estimate D2E/DX2                !
 ! A24   A(13,14,16)           121.2925         estimate D2E/DX2                !
 ! A25   A(15,14,16)           124.4432         estimate D2E/DX2                !
 ! A26   A(14,16,17)           121.6535         estimate D2E/DX2                !
 ! A27   A(14,16,18)           120.0892         estimate D2E/DX2                !
 ! A28   A(17,16,18)           118.1708         estimate D2E/DX2                !
 ! A29   A(16,18,19)           120.9356         estimate D2E/DX2                !
 ! A30   A(16,18,20)           121.4375         estimate D2E/DX2                !
 ! A31   A(19,18,20)           117.5916         estimate D2E/DX2                !
 ! A32   A(18,20,21)           123.1953         estimate D2E/DX2                !
 ! A33   A(18,20,26)           118.9981         estimate D2E/DX2                !
 ! A34   A(21,20,26)           117.8063         estimate D2E/DX2                !
 ! A35   A(20,21,22)           118.6952         estimate D2E/DX2                !
 ! A36   A(20,21,23)           122.8164         estimate D2E/DX2                !
 ! A37   A(22,21,23)           118.4871         estimate D2E/DX2                !
 ! A38   A(21,23,24)           128.115          estimate D2E/DX2                !
 ! A39   A(21,23,25)           121.461          estimate D2E/DX2                !
 ! A40   A(24,23,25)           110.4239         estimate D2E/DX2                !
 ! A41   A(3,25,23)            123.246          estimate D2E/DX2                !
 ! A42   A(3,25,27)            118.2845         estimate D2E/DX2                !
 ! A43   A(23,25,27)           118.4682         estimate D2E/DX2                !
 ! A44   A(13,26,20)           118.7554         estimate D2E/DX2                !
 ! A45   A(13,26,27)           120.6356         estimate D2E/DX2                !
 ! A46   A(20,26,27)           120.6065         estimate D2E/DX2                !
 ! A47   A(8,27,25)            120.4495         estimate D2E/DX2                !
 ! A48   A(8,27,26)            120.709          estimate D2E/DX2                !
 ! A49   A(25,27,26)           118.8398         estimate D2E/DX2                !
 ! A50   A(1,28,7)             110.6997         estimate D2E/DX2                !
 ! A51   A(1,28,29)            107.0941         estimate D2E/DX2                !
 ! A52   A(1,28,33)            106.3066         estimate D2E/DX2                !
 ! A53   A(7,28,29)            113.3263         estimate D2E/DX2                !
 ! A54   A(7,28,33)            110.0363         estimate D2E/DX2                !
 ! A55   A(29,28,33)           109.0981         estimate D2E/DX2                !
 ! A56   A(28,29,30)           112.4798         estimate D2E/DX2                !
 ! A57   A(28,29,31)           108.689          estimate D2E/DX2                !
 ! A58   A(28,29,32)           109.6981         estimate D2E/DX2                !
 ! A59   A(30,29,31)           107.9502         estimate D2E/DX2                !
 ! A60   A(30,29,32)           107.7963         estimate D2E/DX2                !
 ! A61   A(31,29,32)           110.2069         estimate D2E/DX2                !
 ! A62   A(28,33,34)           112.1478         estimate D2E/DX2                !
 ! A63   A(28,33,35)           109.4691         estimate D2E/DX2                !
 ! A64   A(28,33,36)           110.553          estimate D2E/DX2                !
 ! A65   A(34,33,35)           107.891          estimate D2E/DX2                !
 ! A66   A(34,33,36)           106.4653         estimate D2E/DX2                !
 ! A67   A(35,33,36)           110.246          estimate D2E/DX2                !
 ! D1    D(2,1,28,7)           -58.2966         estimate D2E/DX2                !
 ! D2    D(2,1,28,29)           65.6943         estimate D2E/DX2                !
 ! D3    D(2,1,28,33)         -177.7786         estimate D2E/DX2                !
 ! D4    D(4,3,5,6)              2.667          estimate D2E/DX2                !
 ! D5    D(4,3,5,7)            178.6187         estimate D2E/DX2                !
 ! D6    D(25,3,5,6)          -175.979          estimate D2E/DX2                !
 ! D7    D(25,3,5,7)            -0.0274         estimate D2E/DX2                !
 ! D8    D(4,3,25,23)            0.5742         estimate D2E/DX2                !
 ! D9    D(4,3,25,27)         -179.0074         estimate D2E/DX2                !
 ! D10   D(5,3,25,23)          179.1326         estimate D2E/DX2                !
 ! D11   D(5,3,25,27)           -0.449          estimate D2E/DX2                !
 ! D12   D(3,5,7,8)              1.532          estimate D2E/DX2                !
 ! D13   D(3,5,7,28)           179.2514         estimate D2E/DX2                !
 ! D14   D(6,5,7,8)            177.2765         estimate D2E/DX2                !
 ! D15   D(6,5,7,28)            -5.0041         estimate D2E/DX2                !
 ! D16   D(5,7,8,9)            178.4775         estimate D2E/DX2                !
 ! D17   D(5,7,8,27)            -2.5334         estimate D2E/DX2                !
 ! D18   D(28,7,8,9)             0.8561         estimate D2E/DX2                !
 ! D19   D(28,7,8,27)          179.8453         estimate D2E/DX2                !
 ! D20   D(5,7,28,1)           137.0126         estimate D2E/DX2                !
 ! D21   D(5,7,28,29)           16.6722         estimate D2E/DX2                !
 ! D22   D(5,7,28,33)         -105.7749         estimate D2E/DX2                !
 ! D23   D(8,7,28,1)           -45.3836         estimate D2E/DX2                !
 ! D24   D(8,7,28,29)         -165.724          estimate D2E/DX2                !
 ! D25   D(8,7,28,33)           71.8289         estimate D2E/DX2                !
 ! D26   D(7,8,9,10)             0.0639         estimate D2E/DX2                !
 ! D27   D(7,8,9,11)           178.1299         estimate D2E/DX2                !
 ! D28   D(27,8,9,10)         -178.952          estimate D2E/DX2                !
 ! D29   D(27,8,9,11)           -0.8861         estimate D2E/DX2                !
 ! D30   D(7,8,27,25)            2.1164         estimate D2E/DX2                !
 ! D31   D(7,8,27,26)         -178.3595         estimate D2E/DX2                !
 ! D32   D(9,8,27,25)         -178.8247         estimate D2E/DX2                !
 ! D33   D(9,8,27,26)            0.6993         estimate D2E/DX2                !
 ! D34   D(8,9,11,12)          176.6784         estimate D2E/DX2                !
 ! D35   D(8,9,11,13)            0.387          estimate D2E/DX2                !
 ! D36   D(10,9,11,12)          -5.3377         estimate D2E/DX2                !
 ! D37   D(10,9,11,13)         178.3709         estimate D2E/DX2                !
 ! D38   D(9,11,13,14)         179.6584         estimate D2E/DX2                !
 ! D39   D(9,11,13,26)           0.3188         estimate D2E/DX2                !
 ! D40   D(12,11,13,14)          3.2214         estimate D2E/DX2                !
 ! D41   D(12,11,13,26)       -176.1182         estimate D2E/DX2                !
 ! D42   D(11,13,14,15)         -2.8868         estimate D2E/DX2                !
 ! D43   D(11,13,14,16)       -178.6653         estimate D2E/DX2                !
 ! D44   D(26,13,14,15)        176.4402         estimate D2E/DX2                !
 ! D45   D(26,13,14,16)          0.6617         estimate D2E/DX2                !
 ! D46   D(11,13,26,20)        178.9407         estimate D2E/DX2                !
 ! D47   D(11,13,26,27)         -0.4883         estimate D2E/DX2                !
 ! D48   D(14,13,26,20)         -0.4246         estimate D2E/DX2                !
 ! D49   D(14,13,26,27)       -179.8536         estimate D2E/DX2                !
 ! D50   D(13,14,16,17)        175.9072         estimate D2E/DX2                !
 ! D51   D(13,14,16,18)         -0.6488         estimate D2E/DX2                !
 ! D52   D(15,14,16,17)          0.5803         estimate D2E/DX2                !
 ! D53   D(15,14,16,18)       -175.9757         estimate D2E/DX2                !
 ! D54   D(14,16,18,19)       -177.3845         estimate D2E/DX2                !
 ! D55   D(14,16,18,20)          0.4018         estimate D2E/DX2                !
 ! D56   D(17,16,18,19)          5.9409         estimate D2E/DX2                !
 ! D57   D(17,16,18,20)       -176.2727         estimate D2E/DX2                !
 ! D58   D(16,18,20,21)        179.63           estimate D2E/DX2                !
 ! D59   D(16,18,20,26)         -0.1755         estimate D2E/DX2                !
 ! D60   D(19,18,20,21)         -2.5124         estimate D2E/DX2                !
 ! D61   D(19,18,20,26)        177.6821         estimate D2E/DX2                !
 ! D62   D(18,20,21,22)         -0.2697         estimate D2E/DX2                !
 ! D63   D(18,20,21,23)       -179.8593         estimate D2E/DX2                !
 ! D64   D(26,20,21,22)        179.5379         estimate D2E/DX2                !
 ! D65   D(26,20,21,23)         -0.0516         estimate D2E/DX2                !
 ! D66   D(18,20,26,13)          0.1877         estimate D2E/DX2                !
 ! D67   D(18,20,26,27)        179.6169         estimate D2E/DX2                !
 ! D68   D(21,20,26,13)       -179.6283         estimate D2E/DX2                !
 ! D69   D(21,20,26,27)         -0.1991         estimate D2E/DX2                !
 ! D70   D(20,21,23,24)       -179.4573         estimate D2E/DX2                !
 ! D71   D(20,21,23,25)          0.411          estimate D2E/DX2                !
 ! D72   D(22,21,23,24)          0.9524         estimate D2E/DX2                !
 ! D73   D(22,21,23,25)       -179.1794         estimate D2E/DX2                !
 ! D74   D(21,23,25,3)         179.9053         estimate D2E/DX2                !
 ! D75   D(21,23,25,27)         -0.5139         estimate D2E/DX2                !
 ! D76   D(24,23,25,3)          -0.2053         estimate D2E/DX2                !
 ! D77   D(24,23,25,27)        179.3756         estimate D2E/DX2                !
 ! D78   D(3,25,27,8)           -0.6073         estimate D2E/DX2                !
 ! D79   D(3,25,27,26)         179.8599         estimate D2E/DX2                !
 ! D80   D(23,25,27,8)         179.7908         estimate D2E/DX2                !
 ! D81   D(23,25,27,26)          0.258          estimate D2E/DX2                !
 ! D82   D(13,26,27,8)          -0.0299         estimate D2E/DX2                !
 ! D83   D(13,26,27,25)        179.5016         estimate D2E/DX2                !
 ! D84   D(20,26,27,8)        -179.4483         estimate D2E/DX2                !
 ! D85   D(20,26,27,25)          0.0833         estimate D2E/DX2                !
 ! D86   D(1,28,29,30)         -68.4839         estimate D2E/DX2                !
 ! D87   D(1,28,29,31)          50.9932         estimate D2E/DX2                !
 ! D88   D(1,28,29,32)         171.551          estimate D2E/DX2                !
 ! D89   D(7,28,29,30)          53.8827         estimate D2E/DX2                !
 ! D90   D(7,28,29,31)         173.3598         estimate D2E/DX2                !
 ! D91   D(7,28,29,32)         -66.0824         estimate D2E/DX2                !
 ! D92   D(33,28,29,30)        176.8492         estimate D2E/DX2                !
 ! D93   D(33,28,29,31)        -63.6737         estimate D2E/DX2                !
 ! D94   D(33,28,29,32)         56.884          estimate D2E/DX2                !
 ! D95   D(1,28,33,34)          59.193          estimate D2E/DX2                !
 ! D96   D(1,28,33,35)         178.908          estimate D2E/DX2                !
 ! D97   D(1,28,33,36)         -59.455          estimate D2E/DX2                !
 ! D98   D(7,28,33,34)         -60.7209         estimate D2E/DX2                !
 ! D99   D(7,28,33,35)          58.994          estimate D2E/DX2                !
 ! D100  D(7,28,33,36)        -179.369          estimate D2E/DX2                !
 ! D101  D(29,28,33,34)        174.3685         estimate D2E/DX2                !
 ! D102  D(29,28,33,35)        -65.9165         estimate D2E/DX2                !
 ! D103  D(29,28,33,36)         55.7205         estimate D2E/DX2                !
 --------------------------------------------------------------------------------
 Trust Radius=3.00D-01 FncErr=1.00D-07 GrdErr=1.00D-06 EigMax=2.50D+02 EigMin=1.00D-04
 Number of steps in this run=    216 maximum allowed number of steps=    216.
 GradGradGradGradGradGradGradGradGradGradGradGradGradGradGradGradGradGrad

                          Input orientation:                          
 ---------------------------------------------------------------------
 Center     Atomic      Atomic             Coordinates (Angstroms)
 Number     Number       Type             X           Y           Z
 ---------------------------------------------------------------------
      1          8           0        1.683470    2.170860    8.038440
      2          1           0        0.780090    2.326110    7.746400
      3          6           0        0.985520    6.638420    9.579200
      4          1           0        0.491000    7.150530   10.318210
      5          6           0        1.172280    5.286470    9.803840
      6          1           0        0.754090    4.893310   10.690030
      7          6           0        1.802780    4.470480    8.868850
      8          6           0        2.286130    5.068690    7.677460
      9          6           0        2.980870    4.348080    6.649510
     10          1           0        3.115780    3.409690    6.793590
     11          6           0        3.392940    4.945760    5.513110
     12          1           0        3.927990    4.429680    4.818260
     13          6           0        3.178950    6.325270    5.253610
     14          6           0        3.604170    6.954220    4.090870
     15          1           0        4.070240    6.414020    3.524610
     16          6           0        3.401200    8.293450    3.891790
     17          1           0        3.727610    8.724240    3.152790
     18          6           0        2.758460    9.036330    4.839180
     19          1           0        2.574300    9.980020    4.694320
     20          6           0        2.304330    8.466460    6.021280
     21          6           0        1.639720    9.203760    7.032960
     22          1           0        1.491350   10.186660    6.894300
     23          6           0        1.216330    8.658530    8.147660
     24          1           0        0.738790    9.095140    8.900610
     25          6           0        1.412420    7.247500    8.422660
     26          6           0        2.513730    7.075290    6.242050
     27          6           0        2.067850    6.455090    7.449710
     28          6           0        1.991530    2.985790    9.190330
     29          6           0        1.110020    2.499640   10.330600
     30          1           0        0.136130    2.704960   10.178770
     31          1           0        1.208380    1.494220   10.411160
     32          1           0        1.394990    2.956650   11.209040
     33          6           0        3.454880    2.706290    9.535040
     34          1           0        4.088590    2.932810    8.753430
     35          1           0        3.718430    3.250730   10.302710
     36          1           0        3.594540    1.695570    9.744970
 ---------------------------------------------------------------------
                    Distance matrix (angstroms):
                    1          2          3          4          5
     1  O    0.000000
     2  H    0.962021   0.000000
     3  C    4.777046   4.690136   0.000000
     4  H    5.605038   5.474743   1.026130   0.000000
     5  C    3.617316   3.626376   1.383153   2.050229   0.000000
     6  H    3.912341   3.905912   2.081565   2.302718   1.055836
     7  C    2.447870   2.627568   2.423319   3.317240   1.391968
     8  C    2.981765   3.129641   2.787876   3.811838   2.410307
     9  C    2.890097   3.183546   4.220209   5.245240   3.755179
    10  H    2.266244   2.745440   4.766794   5.771161   4.044886
    11  C    4.123063   4.321705   5.019348   6.030858   4.843323
    12  H    4.528763   4.786260   6.016910   7.033163   5.760559
    13  C    5.220236   5.287893   4.860034   5.792780   5.080396
    14  C    6.492529   6.538939   6.089238   6.964921   6.429114
    15  H    6.638956   6.734954   6.798817   7.714040   7.007016
    16  C    7.591535   7.572145   6.396973   7.146636   6.997310
    17  H    8.425846   8.409827   7.291670   8.018444   7.911033
    18  C    7.650199   7.575812   5.600096   6.222330   6.420690
    19  H    8.541645   8.433073   6.128015   6.631311   7.078295
    20  C    6.639953   6.557686   4.211862   4.845972   5.069678
    21  C    7.104547   6.967785   3.673185   4.040814   4.820937
    22  H    8.099322   7.938527   4.478232   4.684223   5.707810
    23  C    6.505383   6.360099   2.486649   2.740703   3.757081
    24  H    7.041407   6.866853   2.560631   2.419194   3.938236
    25  C    5.098369   5.007719   1.375066   2.109864   2.410594
    26  C    5.288647   5.274778   3.696329   4.551063   4.205439
    27  C    4.341541   4.335300   2.395783   3.346399   2.776625
    28  C    1.444252   1.996922   3.808541   4.568234   2.518073
    29  C    2.385569   2.610949   4.208278   4.691920   2.836860
    30  H    2.694538   2.544531   4.068545   4.461891   2.806844
    31  H    2.512639   2.824256   5.215805   5.702378   3.840742
    32  H    3.279236   3.572892   4.047156   4.381713   2.729881
    33  C    2.379998   3.240104   4.643418   5.399001   3.455408
    34  H    2.622285   3.511177   4.903314   5.760239   3.892036
    35  H    3.230186   4.002935   4.412336   5.062113   3.297876
    36  H    2.605827   3.508987   5.591622   6.302155   4.331902
                    6          7          8          9         10
     6  H    0.000000
     7  C    2.143649   0.000000
     8  C    3.384299   1.418059   0.000000
     9  C    4.645603   2.515621   1.434790   0.000000
    10  H    4.791759   2.675060   2.054708   0.958924   0.000000
    11  C    5.810919   3.743727   2.434040   1.348491   2.018900
    12  H    6.690761   4.574436   3.358432   2.063291   2.366853
    13  C    6.122509   4.289994   2.872485   2.428385   3.297899
    14  C    7.477915   5.678298   4.260995   3.705011   4.484073
    15  H    8.040687   6.122060   4.715838   3.901261   4.541280
    16  C    8.048864   6.476200   5.096445   4.831940   5.687971
    17  H    8.962580   7.380568   5.992791   5.651146   6.471028
    18  C    7.444096   6.164296   4.901132   5.030552   5.967116
    19  H    8.070708   6.955356   5.753549   5.975518   6.918770
    20  C    6.080121   4.932349   3.779961   4.220596   5.179366
    21  C    5.721755   5.079470   4.234623   5.052063   5.983920
    22  H    6.555202   6.055621   5.238190   6.030556   6.969666
    23  C    4.566639   4.289965   3.775250   4.892651   5.743843
    24  H    4.567016   4.745584   4.483599   5.712176   6.512600
    25  C    3.334153   2.839596   2.462906   3.743091   4.503786
    26  C    5.257556   3.767036   2.477629   2.796769   3.755434
    27  C    3.829464   2.454159   1.421837   2.431752   3.286809
    28  C    2.723782   1.530778   2.591146   3.048015   2.681043
    29  C    2.446535   2.549674   3.875875   4.524073   4.166738
    30  H    2.330695   2.758745   4.057865   4.821625   4.564472
    31  H    3.440634   3.404432   4.627256   5.043436   4.515973
    32  H    2.104941   2.816818   4.210333   5.023983   4.760521
    33  C    3.662148   2.507112   3.224518   3.353572   2.850493
    34  H    4.325837   2.757295   2.994755   2.767040   2.239363
    35  H    3.411070   2.685788   3.499771   3.885105   3.564040
    36  H    4.380278   3.417326   4.167070   4.122411   3.446457
                   11         12         13         14         15
    11  C    0.000000
    12  H    1.017563   0.000000
    13  C    1.419922   2.084191   0.000000
    14  C    2.470080   2.647123   1.388652   0.000000
    15  H    2.562939   2.373051   1.947233   0.910872   0.000000
    16  C    3.719647   4.008063   2.403681   1.369075   2.028471
    17  H    4.467664   4.610552   3.235665   2.007038   2.364902
    18  C    4.193985   4.752837   2.774601   2.368623   3.213311
    19  H    5.165691   5.714378   3.746412   3.252730   4.040101
    20  C    3.720032   4.514324   2.437001   2.775416   3.682976
    21  C    4.849153   5.738721   3.717663   4.192301   5.098882
    22  H    5.743759   6.587107   4.522189   4.771991   5.677878
    23  C    5.046102   6.026705   4.203749   5.006396   5.878369
    24  H    5.978045   6.971592   5.189140   5.993959   6.869377
    25  C    4.205466   5.221102   3.743530   4.863557   5.634677
    26  C    2.416456   3.320627   1.407857   2.414807   3.200700
    27  C    2.790047   3.806171   2.464600   3.727092   4.406548
    28  C    4.396292   4.994967   5.297156   6.659845   6.940762
    29  C    5.865444   6.484744   6.685188   8.062152   8.390874
    30  H    6.115258   6.788809   6.828074   8.194269   8.573925
    31  H    6.377799   6.877044   7.336383   8.688928   8.934162
    32  H    6.355469   7.030503   7.070874   8.457505   8.840862
    33  C    4.603801   5.043998   5.612824   6.906966   7.088808
    34  H    3.877573   4.213309   4.958323   6.176234   6.281697
    35  H    5.091104   5.613647   5.936097   7.232970   7.488178
    36  H    5.339758   5.644379   6.463679   7.721550   7.821952
                   16         17         18         19         20
    16  C    0.000000
    17  H    0.915557   0.000000
    18  C    1.364747   1.969914   0.000000
    19  H    2.042630   2.298570   0.972343   0.000000
    20  C    2.401621   3.212540   1.388649   2.030904   0.000000
    21  C    3.714623   4.432262   2.468255   2.635385   1.417326
    22  H    4.030737   4.597655   2.674387   2.460771   2.093368
    23  C    4.797851   5.591026   3.669733   3.939032   2.396274
    24  H    5.728823   6.489071   4.536269   4.673862   3.337169
    25  C    5.057474   5.942423   4.225289   4.766251   2.836898
    26  C    2.791995   3.706220   2.423554   3.291898   1.424058
    27  C    4.220922   5.134916   3.735587   4.502643   2.478295
    28  C    7.631052   8.508565   7.491977   8.335045   6.338649
    29  C    8.959688   9.854866   8.694904   9.479866   7.456511
    30  H    9.023193   9.924457   8.687582   9.431350   7.428371
    31  H    9.671617  10.550054   9.504374  10.322635   8.311696
    32  H    9.276231  10.178869   8.910481   9.651947   7.622189
    33  C    7.941380   8.776287   7.912364   8.781523   6.844694
    34  H    7.269423   8.064623   7.371808   8.272401   6.424135
    35  H    8.162693   9.004485   8.015290   8.834388   6.894502
    36  H    8.822081   9.637258   8.868628   9.756130   7.834249
                   21         22         23         24         25
    21  C    0.000000
    22  H    1.003660   0.000000
    23  C    1.311141   1.995427   0.000000
    24  H    2.076437   2.404796   0.992777   0.000000
    25  C    2.410370   3.313725   1.450890   2.023855   0.000000
    26  C    2.433067   3.339358   2.796649   3.781289   2.449000
    27  C    2.812857   3.816471   2.463203   3.292624   1.415674
    28  C    6.590991   7.574593   5.819628   6.243193   4.368851
    29  C    7.490009   8.428751   6.535171   6.758942   5.125803
    30  H    7.375046   8.282524   6.382573   6.544562   5.034631
    31  H    8.428244   9.381199   7.513377   7.763779   6.090648
    32  H    7.518372   8.420173   6.474211   6.590941   5.116211
    33  C    7.195299   8.172202   6.508847   6.971158   5.102119
    34  H    6.948510   7.925930   6.434338   7.015492   5.088010
    35  H    7.102877   8.042653   6.336327   6.708298   4.982614
    36  H    8.218834   9.200453   7.529282   7.976333   6.110162
                   26         27         28         29         30
    26  C    0.000000
    27  C    1.428951   0.000000
    28  C    5.068437   3.882219   0.000000
    29  C    6.294697   4.986236   1.521058   0.000000
    30  H    6.344331   5.024220   2.120940   1.006812   0.000000
    31  H    7.087578   5.841156   2.080512   1.013427   1.633896
    32  H    6.548722   5.179226   2.105208   1.030399   1.646066
    33  C    5.551370   4.508432   1.529163   2.484751   3.380605
    34  H    5.093855   4.264919   2.142743   3.398085   4.207784
    35  H    5.706796   4.596950   2.071175   2.714538   3.625755
    36  H    6.509991   5.500185   2.131181   2.676253   3.628726
                   31         32         33         34         35
    31  H    0.000000
    32  H    1.676346   0.000000
    33  C    2.698789   2.666103   0.000000
    34  H    3.621218   3.645006   1.031414   0.000000
    35  H    3.065524   2.511233   0.977339   1.624303   0.000000
    36  H    2.485581   2.927771   1.041696   1.660723   1.656788
                   36
    36  H    0.000000
 Stoichiometry    C19H16O
 Framework group  C1[X(C19H16O)]
 Deg. of freedom   102
 Full point group                 C1      NOp   1
 Largest Abelian subgroup         C1      NOp   1
 Largest concise Abelian subgroup C1      NOp   1
                         Standard orientation:                         
 ---------------------------------------------------------------------
 Center     Atomic      Atomic             Coordinates (Angstroms)
 Number     Number       Type             X           Y           Z
 ---------------------------------------------------------------------
      1          8           0       -3.260738   -1.494600   -0.961382
      2          1           0       -3.075371   -1.167730   -1.846978
      3          6           0       -0.839073    2.501194    0.033272
      4          1           0       -0.962340    3.519893    0.032941
      5          6           0       -2.002315    1.753095    0.015262
      6          1           0       -2.908726    2.291640   -0.041117
      7          6           0       -1.976052    0.361701   -0.014916
      8          6           0       -0.713570   -0.283726    0.006421
      9          6           0       -0.547642   -1.708882    0.011168
     10          1           0       -1.347051   -2.238325   -0.001937
     11          6           0        0.671298   -2.285362   -0.005645
     12          1           0        0.769364   -3.296728    0.048720
     13          6           0        1.873983   -1.530716   -0.021067
     14          6           0        3.135141   -2.111858   -0.031518
     15          1           0        3.126152   -3.021535    0.014239
     16          6           0        4.270640   -1.347100   -0.019044
     17          1           0        5.103452   -1.724304    0.029798
     18          6           0        4.178456    0.014495   -0.009242
     19          1           0        4.976153    0.569724   -0.038403
     20          6           0        2.947432    0.657060   -0.003276
     21          6           0        2.808363    2.067434    0.014586
     22          1           0        3.637207    2.633281    0.027543
     23          6           0        1.642060    2.666401    0.022819
     24          1           0        1.453807    3.641153    0.027819
     25          6           0        0.403060    1.911444    0.022903
     26          6           0        1.759071   -0.127590   -0.011340
     27          6           0        0.474273    0.497707    0.002665
     28          6           0       -3.301848   -0.403507   -0.016030
     29          6           0       -4.496787    0.462514   -0.384468
     30          1           0       -4.368335    0.943613   -1.259519
     31          1           0       -5.313560   -0.131089   -0.471369
     32          1           0       -4.649247    1.172969    0.346102
     33          6           0       -3.544460   -1.033231    1.356167
     34          1           0       -2.804347   -1.704361    1.612349
     35          1           0       -3.563369   -0.332639    2.037345
     36          1           0       -4.440065   -1.565205    1.361233
 ---------------------------------------------------------------------
 Rotational constants (GHZ):           0.7366612           0.2612779           0.2009529
 Standard basis: 6-31G(d) (6D, 7F)
 There are   332 symmetry adapted cartesian basis functions of A   symmetry.
 There are   332 symmetry adapted basis functions of A   symmetry.
   332 basis functions,   624 primitive gaussians,   332 cartesian basis functions
    69 alpha electrons       69 beta electrons
       nuclear repulsion energy      1476.6492792257 Hartrees.
 NAtoms=   36 NActive=   36 NUniq=   36 SFac= 1.00D+00 NAtFMM=   60 NAOKFM=F Big=F
 Integral buffers will be    131072 words long.
 Regular integral format.
 Two-electron integral symmetry is turned on.
 One-electron integrals computed using PRISM.
 NBasis=   332 RedAO= T EigKep=  1.41D-04  NBF=   332
 NBsUse=   332 1.00D-06 EigRej= -1.00D+00 NBFU=   332
 ExpMin= 1.61D-01 ExpMax= 5.48D+03 ExpMxC= 8.25D+02 IAcc=3 IRadAn=         5 AccDes= 0.00D+00
 Harris functional with IExCor=  402 and IRadAn=       5 diagonalized for initial guess.
 HarFok:  IExCor=  402 AccDes= 0.00D+00 IRadAn=         5 IDoV= 1 UseB2=F ITyADJ=14
 ICtDFT=  3500011 ScaDFX=  1.000000  1.000000  1.000000  1.000000
 FoFCou: FMM=F IPFlag=           0 FMFlag=      100000 FMFlg1=           0
         NFxFlg=           0 DoJE=T BraDBF=F KetDBF=T FulRan=T
         wScrn=  0.000000 ICntrl=       500 IOpCl=  0 I1Cent=   200000004 NGrid=           0
         NMat0=    1 NMatS0=      1 NMatT0=    0 NMatD0=    1 NMtDS0=    0 NMtDT0=    0
 Petite list used in FoFCou.
 Requested convergence on RMS density matrix=1.00D-08 within 128 cycles.
 Requested convergence on MAX density matrix=1.00D-06.
 Requested convergence on             energy=1.00D-06.
 No special actions if energy rises.
 Integral accuracy reduced to 1.0D-05 until final iterations.
 Initial convergence to 1.0D-05 achieved.  Increase integral accuracy.
 SCF Done:  E(RB3LYP) =  -808.781650056     A.U. after   14 cycles
            NFock= 14  Conv=0.64D-08     -V/T= 2.0057
 DoSCS=F DFT=T ScalE2(SS,OS)=  1.000000  1.000000
 ExpMin= 1.61D-01 ExpMax= 5.48D+03 ExpMxC= 8.25D+02 IAcc=3 IRadAn=         5 AccDes= 0.00D+00
 HarFok:  IExCor=  205 AccDes= 0.00D+00 IRadAn=         5 IDoV=-2 UseB2=F ITyADJ=14
 ICtDFT= 12500011 ScaDFX=  1.000000  1.000000  1.000000  1.000000
 Range of M.O.s used for correlation:    21   332
 NBasis=   332 NAE=    69 NBE=    69 NFC=    20 NFV=     0
 NROrb=    312 NOA=    49 NOB=    49 NVA=   263 NVB=   263

 **** Warning!!: The largest alpha MO coefficient is  0.12532060D+02

 Orbital symmetries:
       Occupied  (A) (A) (A) (A) (A) (A) (A) (A) (A) (A) (A) (A)
                 (A) (A) (A) (A) (A) (A) (A) (A) (A) (A) (A) (A)
                 (A) (A) (A) (A) (A) (A) (A) (A) (A) (A) (A) (A)
                 (A) (A) (A) (A) (A) (A) (A) (A) (A) (A) (A) (A)
                 (A) (A) (A) (A) (A) (A) (A) (A) (A) (A) (A) (A)
                 (A) (A) (A) (A) (A) (A) (A) (A) (A)
       Virtual   (A) (A) (A) (A) (A) (A) (A) (A) (A) (A) (A) (A)
                 (A) (A) (A) (A) (A) (A) (A) (A) (A) (A) (A) (A)
                 (A) (A) (A) (A) (A) (A) (A) (A) (A) (A) (A) (A)
                 (A) (A) (A) (A) (A) (A) (A) (A) (A) (A) (A) (A)
                 (A) (A) (A) (A) (A) (A) (A) (A) (A) (A) (A) (A)
                 (A) (A) (A) (A) (A) (A) (A) (A) (A) (A) (A) (A)
                 (A) (A) (A) (A) (A) (A) (A) (A) (A) (A) (A) (A)
                 (A) (A) (A) (A) (A) (A) (A) (A) (A) (A) (A) (A)
                 (A) (A) (A) (A) (A) (A) (A) (A) (A) (A) (A) (A)
                 (A) (A) (A) (A) (A) (A) (A) (A) (A) (A) (A) (A)
                 (A) (A) (A) (A) (A) (A) (A) (A) (A) (A) (A) (A)
                 (A) (A) (A) (A) (A) (A) (A) (A) (A) (A) (A) (A)
                 (A) (A) (A) (A) (A) (A) (A) (A) (A) (A) (A) (A)
                 (A) (A) (A) (A) (A) (A) (A) (A) (A) (A) (A) (A)
                 (A) (A) (A) (A) (A) (A) (A) (A) (A) (A) (A) (A)
                 (A) (A) (A) (A) (A) (A) (A) (A) (A) (A) (A) (A)
                 (A) (A) (A) (A) (A) (A) (A) (A) (A) (A) (A) (A)
                 (A) (A) (A) (A) (A) (A) (A) (A) (A) (A) (A) (A)
                 (A) (A) (A) (A) (A) (A) (A) (A) (A) (A) (A) (A)
                 (A) (A) (A) (A) (A) (A) (A) (A) (A) (A) (A) (A)
                 (A) (A) (A) (A) (A) (A) (A) (A) (A) (A) (A) (A)
                 (A) (A) (A) (A) (A) (A) (A) (A) (A) (A) (A)
     4 initial guesses have been made.
 Convergence on wavefunction:    0.000001000000000
 Iteration     1 Dimension     4 NMult     0 NNew      4
 CISAX will form     4 AO SS matrices at one time.
 New state      1 was old state      2
 Iteration     2 Dimension     6 NMult     4 NNew      2
 Iteration     3 Dimension     8 NMult     6 NNew      2
 Iteration     4 Dimension    10 NMult     8 NNew      2
 Iteration     5 Dimension    12 NMult    10 NNew      2
 Iteration     6 Dimension    14 NMult    12 NNew      2
 Iteration     7 Dimension    16 NMult    14 NNew      2
 Iteration     8 Dimension    18 NMult    16 NNew      2
 Iteration     9 Dimension    20 NMult    18 NNew      2
 Iteration    10 Dimension    22 NMult    20 NNew      2
 Iteration    11 Dimension    24 NMult    22 NNew      2
 Iteration    12 Dimension    26 NMult    24 NNew      2
 Iteration    13 Dimension    28 NMult    26 NNew      2
 Iteration    14 Dimension    30 NMult    28 NNew      2
 Iteration    15 Dimension    32 NMult    30 NNew      2
 Iteration    16 Dimension    34 NMult    32 NNew      2
 ***********************************************************************
 Excited states from <AA,BB:AA,BB> singles matrix:
 ***********************************************************************
 
 Ground to excited state transition densities written to RWF  633
 Ground to excited state transition electric dipole moments (Au):
       state          X           Y           Z        Dip. S.      Osc.
         1        -1.6242      0.6945      0.0185      3.1205      0.2881
 Ground to excited state transition velocity dipole moments (Au):
       state          X           Y           Z        Dip. S.      Osc.
         1         0.2195     -0.0963     -0.0024      0.0575      0.2767
 Ground to excited state transition magnetic dipole moments (Au):
       state          X           Y           Z
         1         0.0102      0.0039     -0.4959
 Ground to excited state transition velocity quadrupole moments (Au):
       state          XX          YY          ZZ          XY          XZ          YZ
         1         0.5521     -0.0572     -0.0372     -0.2503      0.0070      0.0150
 <0|del|b> * <b|rxdel|0> + <0|del|b> * <b|delr+rdel|0>
 Rotatory Strengths (R) in cgs (10**-40 erg-esu-cm/Gauss)
       state          XX          YY          ZZ    R(velocity)    E-M Angle
         1         5.2720     15.6146     -5.3314      5.1851       88.53
 1/2[<0|r|b>*<b|rxdel|0> + (<0|rxdel|b>*<b|r|0>)*]
 Rotatory Strengths (R) in cgs (10**-40 erg-esu-cm/Gauss)
       state          XX          YY          ZZ     R(length)
         1        11.7714     -1.9338      6.4797      5.4391
  1/2[<0|del|b>*<b|r|0> + (<0|r|b>*<b|del|0>)*] (Au)
       state          X           Y           Z        Dip. S.   Osc.(frdel)
         1        -0.3566     -0.0669     -0.0000      0.4235      0.2823

 Excitation energies and oscillator strengths:
 
 Excited State   1:      Singlet-A      3.7683 eV  329.02 nm  f=0.2881  <S**2>=0.000
      68 -> 71         0.20939
      69 -> 70         0.67238
 This state for optimization and/or second-order correction.
 Total Energy, E(TD-HF/TD-DFT) =  -808.643167251    
 Copying the excited state density for this state as the 1-particle RhoCI density.
 SavETr:  write IOETrn=   770 NScale= 10 NData=  16 NLR=1 NState=    1 LETran=      28.
          IDoAtm=111111111111111111111111111111111111
          Differentiating once with respect to electric field.
                with respect to dipole field.
          Differentiating once with respect to nuclear coordinates.
 Keep R1 ints in memory in canonical form, NReq=1562528519.
          There are     1 degrees of freedom in the 1st order CPHF.  IDoFFX=0 NUNeed=     1.
 LinEq1:  Iter=  0 NonCon=     1 RMS=1.96D-03 Max=1.34D-01 NDo=     1
 AX will form     1 AO Fock derivatives at one time.
 LinEq1:  Iter=  1 NonCon=     1 RMS=1.36D-03 Max=8.68D-02 NDo=     1
 LinEq1:  Iter=  2 NonCon=     1 RMS=5.98D-04 Max=1.69D-02 NDo=     1
 LinEq1:  Iter=  3 NonCon=     1 RMS=3.35D-04 Max=7.97D-03 NDo=     1
 LinEq1:  Iter=  4 NonCon=     1 RMS=1.60D-04 Max=7.67D-03 NDo=     1
 LinEq1:  Iter=  5 NonCon=     1 RMS=1.46D-04 Max=9.18D-03 NDo=     1
 LinEq1:  Iter=  6 NonCon=     1 RMS=8.02D-05 Max=3.39D-03 NDo=     1
 LinEq1:  Iter=  7 NonCon=     1 RMS=4.43D-05 Max=1.25D-03 NDo=     1
 LinEq1:  Iter=  8 NonCon=     1 RMS=2.24D-05 Max=1.08D-03 NDo=     1
 LinEq1:  Iter=  9 NonCon=     1 RMS=1.73D-05 Max=8.25D-04 NDo=     1
 LinEq1:  Iter= 10 NonCon=     1 RMS=1.08D-05 Max=3.88D-04 NDo=     1
 LinEq1:  Iter= 11 NonCon=     1 RMS=5.35D-06 Max=1.69D-04 NDo=     1
 LinEq1:  Iter= 12 NonCon=     1 RMS=3.04D-06 Max=1.38D-04 NDo=     1
 LinEq1:  Iter= 13 NonCon=     1 RMS=1.82D-06 Max=6.48D-05 NDo=     1
 LinEq1:  Iter= 14 NonCon=     1 RMS=9.89D-07 Max=3.14D-05 NDo=     1
 LinEq1:  Iter= 15 NonCon=     1 RMS=4.57D-07 Max=1.46D-05 NDo=     1
 LinEq1:  Iter= 16 NonCon=     1 RMS=3.11D-07 Max=1.11D-05 NDo=     1
 LinEq1:  Iter= 17 NonCon=     1 RMS=2.00D-07 Max=6.69D-06 NDo=     1
 LinEq1:  Iter= 18 NonCon=     1 RMS=1.18D-07 Max=3.93D-06 NDo=     1
 LinEq1:  Iter= 19 NonCon=     1 RMS=3.79D-08 Max=1.76D-06 NDo=     1
 LinEq1:  Iter= 20 NonCon=     1 RMS=2.14D-08 Max=9.61D-07 NDo=     1
 LinEq1:  Iter= 21 NonCon=     1 RMS=6.57D-09 Max=1.67D-07 NDo=     1
 LinEq1:  Iter= 22 NonCon=     1 RMS=3.31D-09 Max=7.30D-08 NDo=     1
 LinEq1:  Iter= 23 NonCon=     1 RMS=1.32D-09 Max=4.26D-08 NDo=     1
 LinEq1:  Iter= 24 NonCon=     1 RMS=6.64D-10 Max=2.01D-08 NDo=     1
 LinEq1:  Iter= 25 NonCon=     1 RMS=3.76D-10 Max=1.16D-08 NDo=     1
 LinEq1:  Iter= 26 NonCon=     1 RMS=1.85D-10 Max=6.09D-09 NDo=     1
 LinEq1:  Iter= 27 NonCon=     1 RMS=8.00D-11 Max=1.47D-09 NDo=     1
 LinEq1:  Iter= 28 NonCon=     1 RMS=3.51D-11 Max=1.09D-09 NDo=     1
 LinEq1:  Iter= 29 NonCon=     0 RMS=1.65D-11 Max=3.25D-10 NDo=     1
 Linear equations converged to 1.000D-10 1.000D-09 after    29 iterations.
 End of Minotr F.D. properties file   721 does not exist.
 End of Minotr F.D. properties file   722 does not exist.
 End of Minotr F.D. properties file   788 does not exist.

 **********************************************************************

            Population analysis using the SCF density.

 **********************************************************************

 Orbital symmetries:
       Occupied  (A) (A) (A) (A) (A) (A) (A) (A) (A) (A) (A) (A)
                 (A) (A) (A) (A) (A) (A) (A) (A) (A) (A) (A) (A)
                 (A) (A) (A) (A) (A) (A) (A) (A) (A) (A) (A) (A)
                 (A) (A) (A) (A) (A) (A) (A) (A) (A) (A) (A) (A)
                 (A) (A) (A) (A) (A) (A) (A) (A) (A) (A) (A) (A)
                 (A) (A) (A) (A) (A) (A) (A) (A) (A)
       Virtual   (A) (A) (A) (A) (A) (A) (A) (A) (A) (A) (A) (A)
                 (A) (A) (A) (A) (A) (A) (A) (A) (A) (A) (A) (A)
                 (A) (A) (A) (A) (A) (A) (A) (A) (A) (A) (A) (A)
                 (A) (A) (A) (A) (A) (A) (A) (A) (A) (A) (A) (A)
                 (A) (A) (A) (A) (A) (A) (A) (A) (A) (A) (A) (A)
                 (A) (A) (A) (A) (A) (A) (A) (A) (A) (A) (A) (A)
                 (A) (A) (A) (A) (A) (A) (A) (A) (A) (A) (A) (A)
                 (A) (A) (A) (A) (A) (A) (A) (A) (A) (A) (A) (A)
                 (A) (A) (A) (A) (A) (A) (A) (A) (A) (A) (A) (A)
                 (A) (A) (A) (A) (A) (A) (A) (A) (A) (A) (A) (A)
                 (A) (A) (A) (A) (A) (A) (A) (A) (A) (A) (A) (A)
                 (A) (A) (A) (A) (A) (A) (A) (A) (A) (A) (A) (A)
                 (A) (A) (A) (A) (A) (A) (A) (A) (A) (A) (A) (A)
                 (A) (A) (A) (A) (A) (A) (A) (A) (A) (A) (A) (A)
                 (A) (A) (A) (A) (A) (A) (A) (A) (A) (A) (A) (A)
                 (A) (A) (A) (A) (A) (A) (A) (A) (A) (A) (A) (A)
                 (A) (A) (A) (A) (A) (A) (A) (A) (A) (A) (A) (A)
                 (A) (A) (A) (A) (A) (A) (A) (A) (A) (A) (A) (A)
                 (A) (A) (A) (A) (A) (A) (A) (A) (A) (A) (A) (A)
                 (A) (A) (A) (A) (A) (A) (A) (A) (A) (A) (A) (A)
                 (A) (A) (A) (A) (A) (A) (A) (A) (A) (A) (A) (A)
                 (A) (A) (A) (A) (A) (A) (A) (A) (A) (A) (A)
 The electronic state is 1-A.
 Alpha  occ. eigenvalues --  -19.13661 -10.24305 -10.19129 -10.18979 -10.18809
 Alpha  occ. eigenvalues --  -10.18713 -10.18669 -10.18548 -10.18276 -10.18035
 Alpha  occ. eigenvalues --  -10.17564 -10.17359 -10.17287 -10.17253 -10.16855
 Alpha  occ. eigenvalues --  -10.16433 -10.16419 -10.16251 -10.15119 -10.14844
 Alpha  occ. eigenvalues --   -1.01333  -0.89091  -0.85424  -0.83218  -0.80896
 Alpha  occ. eigenvalues --   -0.78776  -0.76323  -0.74783  -0.73282  -0.71411
 Alpha  occ. eigenvalues --   -0.71087  -0.64089  -0.63510  -0.62877  -0.61578
 Alpha  occ. eigenvalues --   -0.58686  -0.55716  -0.53529  -0.52637  -0.51523
 Alpha  occ. eigenvalues --   -0.49746  -0.49451  -0.47006  -0.45596  -0.44483
 Alpha  occ. eigenvalues --   -0.44074  -0.43008  -0.42583  -0.41532  -0.40883
 Alpha  occ. eigenvalues --   -0.40319  -0.40179  -0.39735  -0.39543  -0.37551
 Alpha  occ. eigenvalues --   -0.37327  -0.36610  -0.36204  -0.35518  -0.33731
 Alpha  occ. eigenvalues --   -0.32717  -0.32015  -0.30601  -0.29442  -0.27138
 Alpha  occ. eigenvalues --   -0.25833  -0.24840  -0.22652  -0.19363
 Alpha virt. eigenvalues --   -0.04950  -0.01849   0.00683   0.02604   0.06282
 Alpha virt. eigenvalues --    0.08737   0.11539   0.12117   0.13397   0.14044
 Alpha virt. eigenvalues --    0.14807   0.15387   0.16313   0.16722   0.17113
 Alpha virt. eigenvalues --    0.17351   0.18711   0.20497   0.20906   0.21360
 Alpha virt. eigenvalues --    0.22297   0.22556   0.23517   0.24186   0.24339
 Alpha virt. eigenvalues --    0.25184   0.26619   0.26831   0.27197   0.28596
 Alpha virt. eigenvalues --    0.29238   0.30083   0.32224   0.33388   0.34066
 Alpha virt. eigenvalues --    0.35696   0.36121   0.36843   0.38745   0.47177
 Alpha virt. eigenvalues --    0.48044   0.48874   0.49462   0.50406   0.50887
 Alpha virt. eigenvalues --    0.51937   0.52814   0.53339   0.53871   0.54350
 Alpha virt. eigenvalues --    0.55563   0.56160   0.56722   0.57414   0.57574
 Alpha virt. eigenvalues --    0.58507   0.58800   0.59431   0.59752   0.60025
 Alpha virt. eigenvalues --    0.60788   0.60964   0.61693   0.62667   0.62851
 Alpha virt. eigenvalues --    0.63164   0.63730   0.63863   0.64028   0.65154
 Alpha virt. eigenvalues --    0.65686   0.68426   0.68566   0.69577   0.71127
 Alpha virt. eigenvalues --    0.71426   0.72124   0.73703   0.76729   0.78039
 Alpha virt. eigenvalues --    0.79531   0.81475   0.83434   0.84949   0.85501
 Alpha virt. eigenvalues --    0.87319   0.87877   0.88146   0.89254   0.89627
 Alpha virt. eigenvalues --    0.91063   0.91782   0.92546   0.93477   0.94104
 Alpha virt. eigenvalues --    0.94719   0.95452   0.96296   0.96591   0.97382
 Alpha virt. eigenvalues --    0.98474   0.98572   0.99494   0.99924   1.00518
 Alpha virt. eigenvalues --    1.01364   1.02467   1.03652   1.04856   1.06274
 Alpha virt. eigenvalues --    1.07391   1.07790   1.09531   1.10366   1.11199
 Alpha virt. eigenvalues --    1.12401   1.13587   1.16921   1.18181   1.20618
 Alpha virt. eigenvalues --    1.22200   1.22987   1.23617   1.24065   1.26235
 Alpha virt. eigenvalues --    1.26840   1.28351   1.29844   1.31664   1.32675
 Alpha virt. eigenvalues --    1.35535   1.36417   1.38391   1.39809   1.41887
 Alpha virt. eigenvalues --    1.43627   1.45107   1.46805   1.47873   1.48075
 Alpha virt. eigenvalues --    1.48573   1.50040   1.51394   1.52917   1.54120
 Alpha virt. eigenvalues --    1.54902   1.56864   1.57810   1.60067   1.63676
 Alpha virt. eigenvalues --    1.65310   1.68482   1.71224   1.72914   1.73939
 Alpha virt. eigenvalues --    1.75897   1.77473   1.77665   1.79996   1.82692
 Alpha virt. eigenvalues --    1.83771   1.84628   1.86543   1.87762   1.89488
 Alpha virt. eigenvalues --    1.90569   1.91574   1.93423   1.93959   1.95443
 Alpha virt. eigenvalues --    1.97065   1.97365   1.98813   1.99281   2.00902
 Alpha virt. eigenvalues --    2.02932   2.04673   2.05463   2.07588   2.08588
 Alpha virt. eigenvalues --    2.09263   2.10118   2.11582   2.13762   2.15129
 Alpha virt. eigenvalues --    2.17007   2.17209   2.19530   2.21401   2.24084
 Alpha virt. eigenvalues --    2.24556   2.25259   2.26061   2.27656   2.29195
 Alpha virt. eigenvalues --    2.30530   2.30964   2.31947   2.33100   2.34335
 Alpha virt. eigenvalues --    2.35222   2.35897   2.37118   2.38433   2.39632
 Alpha virt. eigenvalues --    2.39981   2.40631   2.42015   2.43487   2.47515
 Alpha virt. eigenvalues --    2.48778   2.51822   2.54859   2.55663   2.63017
 Alpha virt. eigenvalues --    2.64233   2.64674   2.68140   2.71208   2.71663
 Alpha virt. eigenvalues --    2.72349   2.73494   2.74856   2.75845   2.76838
 Alpha virt. eigenvalues --    2.80152   2.83303   2.83437   2.88104   2.88589
 Alpha virt. eigenvalues --    2.91108   2.93433   2.94884   2.97521   2.98593
 Alpha virt. eigenvalues --    3.00001   3.10606   3.11574   3.15768   3.30131
 Alpha virt. eigenvalues --    3.44500   3.55696   3.66143   3.83844   4.10896
 Alpha virt. eigenvalues --    4.12571   4.13296   4.14376   4.16153   4.16447
 Alpha virt. eigenvalues --    4.17196   4.20299   4.26692   4.29190   4.35209
 Alpha virt. eigenvalues --    4.36744   4.37322   4.43169   4.48246   4.59885
 Alpha virt. eigenvalues --    4.65292   4.74045   4.97787
          Condensed to atoms (all electrons):
               1          2          3          4          5          6
     1  O    8.337664   0.227343  -0.000049   0.000001   0.003173   0.000107
     2  H    0.227343   0.398809  -0.000024   0.000000   0.000822   0.000023
     3  C   -0.000049  -0.000024   5.243110   0.352527   0.421455  -0.041866
     4  H    0.000001   0.000000   0.352527   0.618451  -0.046999  -0.006658
     5  C    0.003173   0.000822   0.421455  -0.046999   5.119218   0.358146
     6  H    0.000107   0.000023  -0.041866  -0.006658   0.358146   0.603985
     7  C   -0.036867   0.000388   0.006779   0.004325   0.442317  -0.039851
     8  C   -0.013034  -0.000736  -0.082597   0.001364   0.001680   0.003371
     9  C   -0.009228   0.001556  -0.001410   0.000023   0.012581  -0.000167
    10  H    0.027448  -0.002735   0.000037   0.000000  -0.000271  -0.000011
    11  C    0.000296   0.000002   0.000072  -0.000000  -0.000281   0.000003
    12  H   -0.000021   0.000004  -0.000001   0.000000   0.000004  -0.000000
    13  C    0.000010  -0.000009  -0.000235   0.000003   0.000006  -0.000001
    14  C    0.000000  -0.000000  -0.000002  -0.000000   0.000001  -0.000000
    15  H    0.000000  -0.000000  -0.000000   0.000000   0.000000  -0.000000
    16  C   -0.000000   0.000000   0.000001  -0.000000  -0.000000   0.000000
    17  H    0.000000  -0.000000  -0.000000  -0.000000   0.000000   0.000000
    18  C    0.000000  -0.000000  -0.000017  -0.000000   0.000001  -0.000000
    19  H   -0.000000  -0.000000  -0.000000   0.000000  -0.000000  -0.000000
    20  C   -0.000000   0.000000  -0.000309   0.000022   0.000037  -0.000001
    21  C   -0.000000   0.000000   0.013969   0.000215  -0.000502   0.000004
    22  H   -0.000000  -0.000000  -0.000354  -0.000021   0.000005  -0.000000
    23  C    0.000000   0.000000  -0.106907  -0.010662   0.008321  -0.000227
    24  H    0.000000   0.000000  -0.016268   0.008202   0.000123  -0.000010
    25  C    0.000003  -0.000024   0.425845  -0.041296   0.020069   0.002931
    26  C   -0.000008   0.000012   0.021128  -0.000261  -0.002306   0.000027
    27  C   -0.000100  -0.000139  -0.001151   0.005186  -0.076317   0.001384
    28  C    0.206665  -0.020554   0.007063  -0.000227  -0.072469  -0.014642
    29  C   -0.055876  -0.004618   0.000231   0.000007  -0.008856   0.008409
    30  H   -0.001964   0.004138  -0.000080   0.000003   0.002394   0.001389
    31  H    0.002525  -0.000674  -0.000009  -0.000000   0.000391  -0.000037
    32  H    0.005180  -0.000136   0.000472  -0.000004   0.000931   0.000981
    33  C   -0.053578   0.008530  -0.000266   0.000003   0.001839   0.000552
    34  H   -0.003146  -0.000049   0.000019   0.000000  -0.000268  -0.000007
    35  H    0.004051  -0.000348  -0.000001   0.000001   0.001443  -0.000058
    36  H    0.000757  -0.000286   0.000004  -0.000000  -0.000174  -0.000029
               7          8          9         10         11         12
     1  O   -0.036867  -0.013034  -0.009228   0.027448   0.000296  -0.000021
     2  H    0.000388  -0.000736   0.001556  -0.002735   0.000002   0.000004
     3  C    0.006779  -0.082597  -0.001410   0.000037   0.000072  -0.000001
     4  H    0.004325   0.001364   0.000023   0.000000  -0.000000   0.000000
     5  C    0.442317   0.001680   0.012581  -0.000271  -0.000281   0.000004
     6  H   -0.039851   0.003371  -0.000167  -0.000011   0.000003  -0.000000
     7  C    5.110392   0.408580  -0.118303  -0.022927   0.011609  -0.000242
     8  C    0.408580   5.060873   0.396452  -0.027332   0.032668   0.003061
     9  C   -0.118303   0.396452   5.185511   0.350634   0.428745  -0.048103
    10  H   -0.022927  -0.027332   0.350634   0.586993  -0.056883  -0.006756
    11  C    0.011609   0.032668   0.428745  -0.056883   5.250136   0.355751
    12  H   -0.000242   0.003061  -0.048103  -0.006756   0.355751   0.618185
    13  C   -0.000881  -0.056602   0.032144   0.004546   0.368205  -0.040700
    14  C   -0.000011  -0.000755   0.010782  -0.000212  -0.111760  -0.014507
    15  H   -0.000000   0.000017   0.000205  -0.000013  -0.020616   0.009252
    16  C    0.000000   0.000042  -0.000478   0.000003   0.011344   0.000103
    17  H   -0.000000  -0.000001   0.000006  -0.000000  -0.000342  -0.000013
    18  C   -0.000002  -0.000147   0.000095  -0.000000  -0.000732   0.000017
    19  H   -0.000000   0.000003  -0.000000   0.000000   0.000017  -0.000000
    20  C   -0.000015   0.014238  -0.002450   0.000011   0.019054  -0.000276
    21  C    0.000055  -0.002284   0.000013   0.000000  -0.000274   0.000003
    22  H   -0.000001   0.000035  -0.000000   0.000000   0.000003  -0.000000
    23  C   -0.000368   0.016100  -0.000215   0.000001   0.000022  -0.000000
    24  H    0.000015  -0.000297   0.000003  -0.000000  -0.000000   0.000000
    25  C   -0.064394  -0.060997   0.018090  -0.000202  -0.002103   0.000027
    26  C    0.019171  -0.042166  -0.092012   0.000623   0.006438   0.006981
    27  C   -0.005898   0.325074  -0.002739   0.009913  -0.096440   0.001254
    28  C    0.350668  -0.044080  -0.013692   0.003204   0.000013  -0.000001
    29  C   -0.056467   0.008037  -0.000019   0.000590  -0.000006  -0.000000
    30  H   -0.006321  -0.000267   0.000016  -0.000016   0.000000   0.000000
    31  H    0.005721  -0.000032  -0.000018   0.000021  -0.000000  -0.000000
    32  H   -0.005269  -0.000702  -0.000003  -0.000034   0.000000   0.000000
    33  C   -0.054131  -0.015420   0.000247  -0.005422   0.000156   0.000005
    34  H   -0.008212   0.003226   0.002807   0.004245   0.000147   0.000000
    35  H   -0.000342   0.000043  -0.000027   0.000085  -0.000001  -0.000000
    36  H    0.005431   0.000437  -0.000234   0.000295  -0.000010  -0.000000
              13         14         15         16         17         18
     1  O    0.000010   0.000000   0.000000  -0.000000   0.000000   0.000000
     2  H   -0.000009  -0.000000  -0.000000   0.000000  -0.000000  -0.000000
     3  C   -0.000235  -0.000002  -0.000000   0.000001  -0.000000  -0.000017
     4  H    0.000003  -0.000000   0.000000  -0.000000  -0.000000  -0.000000
     5  C    0.000006   0.000001   0.000000  -0.000000   0.000000   0.000001
     6  H   -0.000001  -0.000000  -0.000000   0.000000   0.000000  -0.000000
     7  C   -0.000881  -0.000011  -0.000000   0.000000  -0.000000  -0.000002
     8  C   -0.056602  -0.000755   0.000017   0.000042  -0.000001  -0.000147
     9  C    0.032144   0.010782   0.000205  -0.000478   0.000006   0.000095
    10  H    0.004546  -0.000212  -0.000013   0.000003  -0.000000  -0.000000
    11  C    0.368205  -0.111760  -0.020616   0.011344  -0.000342  -0.000732
    12  H   -0.040700  -0.014507   0.009252   0.000103  -0.000013   0.000017
    13  C    4.876863   0.464029  -0.042045   0.041104   0.003693  -0.082223
    14  C    0.464029   5.117723   0.355989   0.444454  -0.052026   0.006948
    15  H   -0.042045   0.355989   0.684787  -0.076904  -0.009084   0.007903
    16  C    0.041104   0.444454  -0.076904   4.922659   0.371823   0.445186
    17  H    0.003693  -0.052026  -0.009084   0.371823   0.642550  -0.049809
    18  C   -0.082223   0.006948   0.007903   0.445186  -0.049809   5.168827
    19  H    0.000989   0.006665  -0.000378  -0.063078  -0.008979   0.361877
    20  C   -0.052564  -0.080911   0.000981   0.039506   0.004087   0.459081
    21  C    0.019525  -0.000613   0.000016   0.010957  -0.000405  -0.119567
    22  H   -0.000253   0.000013  -0.000000   0.000214  -0.000015  -0.013511
    23  C   -0.001957   0.000074  -0.000000  -0.000523   0.000008   0.011954
    24  H    0.000027  -0.000001   0.000000   0.000004  -0.000000  -0.000239
    25  C    0.015476  -0.000182   0.000004   0.000046  -0.000001  -0.000827
    26  C    0.353828  -0.011418   0.012855  -0.074868   0.002585  -0.010177
    27  C   -0.050506   0.021278  -0.000365  -0.003024   0.000053   0.021604
    28  C   -0.000007  -0.000000  -0.000000   0.000000  -0.000000  -0.000000
    29  C    0.000000   0.000000   0.000000  -0.000000  -0.000000   0.000000
    30  H   -0.000000  -0.000000  -0.000000   0.000000   0.000000  -0.000000
    31  H    0.000000  -0.000000  -0.000000   0.000000  -0.000000  -0.000000
    32  H   -0.000000  -0.000000  -0.000000   0.000000  -0.000000  -0.000000
    33  C   -0.000010   0.000000   0.000000  -0.000000   0.000000  -0.000000
    34  H   -0.000006  -0.000000  -0.000000   0.000000   0.000000   0.000000
    35  H    0.000000  -0.000000  -0.000000  -0.000000  -0.000000  -0.000000
    36  H    0.000000   0.000000  -0.000000  -0.000000  -0.000000  -0.000000
              19         20         21         22         23         24
     1  O   -0.000000  -0.000000  -0.000000  -0.000000   0.000000   0.000000
     2  H   -0.000000   0.000000   0.000000  -0.000000   0.000000   0.000000
     3  C   -0.000000  -0.000309   0.013969  -0.000354  -0.106907  -0.016268
     4  H    0.000000   0.000022   0.000215  -0.000021  -0.010662   0.008202
     5  C   -0.000000   0.000037  -0.000502   0.000005   0.008321   0.000123
     6  H   -0.000000  -0.000001   0.000004  -0.000000  -0.000227  -0.000010
     7  C   -0.000000  -0.000015   0.000055  -0.000001  -0.000368   0.000015
     8  C    0.000003   0.014238  -0.002284   0.000035   0.016100  -0.000297
     9  C   -0.000000  -0.002450   0.000013  -0.000000  -0.000215   0.000003
    10  H    0.000000   0.000011   0.000000   0.000000   0.000001  -0.000000
    11  C    0.000017   0.019054  -0.000274   0.000003   0.000022  -0.000000
    12  H   -0.000000  -0.000276   0.000003  -0.000000  -0.000000   0.000000
    13  C    0.000989  -0.052564   0.019525  -0.000253  -0.001957   0.000027
    14  C    0.006665  -0.080911  -0.000613   0.000013   0.000074  -0.000001
    15  H   -0.000378   0.000981   0.000016  -0.000000  -0.000000   0.000000
    16  C   -0.063078   0.039506   0.010957   0.000214  -0.000523   0.000004
    17  H   -0.008979   0.004087  -0.000405  -0.000015   0.000008  -0.000000
    18  C    0.361877   0.459081  -0.119567  -0.013511   0.011954  -0.000239
    19  H    0.641894  -0.044760  -0.014386   0.007354   0.000270  -0.000018
    20  C   -0.044760   4.861023   0.360361  -0.041540   0.028656   0.003084
    21  C   -0.014386   0.360361   5.255737   0.356891   0.427075  -0.058355
    22  H    0.007354  -0.041540   0.356891   0.622437  -0.050759  -0.006738
    23  C    0.000270   0.028656   0.427075  -0.050759   5.120047   0.356784
    24  H   -0.000018   0.003084  -0.058355  -0.006738   0.356784   0.634242
    25  C    0.000019  -0.052859   0.033840   0.003121   0.408313  -0.039239
    26  C    0.008393   0.372784   0.016208   0.006275  -0.087202   0.001139
    27  C   -0.000245  -0.060043  -0.098424   0.001526   0.009240   0.008731
    28  C    0.000000   0.000001  -0.000000   0.000000   0.000004  -0.000000
    29  C   -0.000000  -0.000000   0.000000  -0.000000   0.000000   0.000000
    30  H   -0.000000   0.000000  -0.000000  -0.000000  -0.000000   0.000000
    31  H    0.000000   0.000000   0.000000  -0.000000  -0.000000  -0.000000
    32  H   -0.000000   0.000000  -0.000000   0.000000  -0.000000   0.000000
    33  C   -0.000000   0.000000  -0.000000  -0.000000   0.000000   0.000000
    34  H   -0.000000  -0.000000   0.000000   0.000000  -0.000000  -0.000000
    35  H    0.000000   0.000000   0.000000  -0.000000  -0.000000  -0.000000
    36  H    0.000000  -0.000000   0.000000   0.000000  -0.000000  -0.000000
              25         26         27         28         29         30
     1  O    0.000003  -0.000008  -0.000100   0.206665  -0.055876  -0.001964
     2  H   -0.000024   0.000012  -0.000139  -0.020554  -0.004618   0.004138
     3  C    0.425845   0.021128  -0.001151   0.007063   0.000231  -0.000080
     4  H   -0.041296  -0.000261   0.005186  -0.000227   0.000007   0.000003
     5  C    0.020069  -0.002306  -0.076317  -0.072469  -0.008856   0.002394
     6  H    0.002931   0.000027   0.001384  -0.014642   0.008409   0.001389
     7  C   -0.064394   0.019171  -0.005898   0.350668  -0.056467  -0.006321
     8  C   -0.060997  -0.042166   0.325074  -0.044080   0.008037  -0.000267
     9  C    0.018090  -0.092012  -0.002739  -0.013692  -0.000019   0.000016
    10  H   -0.000202   0.000623   0.009913   0.003204   0.000590  -0.000016
    11  C   -0.002103   0.006438  -0.096440   0.000013  -0.000006   0.000000
    12  H    0.000027   0.006981   0.001254  -0.000001  -0.000000   0.000000
    13  C    0.015476   0.353828  -0.050506  -0.000007   0.000000  -0.000000
    14  C   -0.000182  -0.011418   0.021278  -0.000000   0.000000  -0.000000
    15  H    0.000004   0.012855  -0.000365  -0.000000   0.000000  -0.000000
    16  C    0.000046  -0.074868  -0.003024   0.000000  -0.000000   0.000000
    17  H   -0.000001   0.002585   0.000053  -0.000000  -0.000000   0.000000
    18  C   -0.000827  -0.010177   0.021604  -0.000000   0.000000  -0.000000
    19  H    0.000019   0.008393  -0.000245   0.000000  -0.000000  -0.000000
    20  C   -0.052859   0.372784  -0.060043   0.000001  -0.000000   0.000000
    21  C    0.033840   0.016208  -0.098424  -0.000000   0.000000  -0.000000
    22  H    0.003121   0.006275   0.001526   0.000000  -0.000000  -0.000000
    23  C    0.408313  -0.087202   0.009240   0.000004   0.000000  -0.000000
    24  H   -0.039239   0.001139   0.008731  -0.000000   0.000000   0.000000
    25  C    4.855786  -0.045313   0.370953   0.000053   0.000008  -0.000003
    26  C   -0.045313   5.372516   0.209462  -0.000056  -0.000001   0.000000
    27  C    0.370953   0.209462   5.402429   0.007559  -0.000150  -0.000014
    28  C    0.000053  -0.000056   0.007559   4.748943   0.391960  -0.021583
    29  C    0.000008  -0.000001  -0.000150   0.391960   5.170678   0.369923
    30  H   -0.000003   0.000000  -0.000014  -0.021583   0.369923   0.565179
    31  H    0.000000  -0.000000   0.000003  -0.023911   0.371036  -0.033640
    32  H   -0.000014   0.000000   0.000016  -0.018481   0.347467  -0.036129
    33  C    0.000017   0.000015  -0.000536   0.384451  -0.070863   0.007306
    34  H   -0.000007  -0.000005  -0.000015  -0.021455   0.006239  -0.000253
    35  H   -0.000014   0.000001   0.000000  -0.026993  -0.002650  -0.000119
    36  H   -0.000000  -0.000000   0.000013  -0.022774  -0.007266  -0.000054
              31         32         33         34         35         36
     1  O    0.002525   0.005180  -0.053578  -0.003146   0.004051   0.000757
     2  H   -0.000674  -0.000136   0.008530  -0.000049  -0.000348  -0.000286
     3  C   -0.000009   0.000472  -0.000266   0.000019  -0.000001   0.000004
     4  H   -0.000000  -0.000004   0.000003   0.000000   0.000001  -0.000000
     5  C    0.000391   0.000931   0.001839  -0.000268   0.001443  -0.000174
     6  H   -0.000037   0.000981   0.000552  -0.000007  -0.000058  -0.000029
     7  C    0.005721  -0.005269  -0.054131  -0.008212  -0.000342   0.005431
     8  C   -0.000032  -0.000702  -0.015420   0.003226   0.000043   0.000437
     9  C   -0.000018  -0.000003   0.000247   0.002807  -0.000027  -0.000234
    10  H    0.000021  -0.000034  -0.005422   0.004245   0.000085   0.000295
    11  C   -0.000000   0.000000   0.000156   0.000147  -0.000001  -0.000010
    12  H   -0.000000   0.000000   0.000005   0.000000  -0.000000  -0.000000
    13  C    0.000000  -0.000000  -0.000010  -0.000006   0.000000   0.000000
    14  C   -0.000000  -0.000000   0.000000  -0.000000  -0.000000   0.000000
    15  H   -0.000000  -0.000000   0.000000  -0.000000  -0.000000  -0.000000
    16  C    0.000000   0.000000  -0.000000   0.000000  -0.000000  -0.000000
    17  H   -0.000000  -0.000000   0.000000   0.000000  -0.000000  -0.000000
    18  C   -0.000000  -0.000000  -0.000000   0.000000  -0.000000  -0.000000
    19  H    0.000000  -0.000000  -0.000000  -0.000000   0.000000   0.000000
    20  C    0.000000   0.000000   0.000000  -0.000000   0.000000  -0.000000
    21  C    0.000000  -0.000000  -0.000000   0.000000   0.000000   0.000000
    22  H   -0.000000   0.000000  -0.000000   0.000000  -0.000000   0.000000
    23  C   -0.000000  -0.000000   0.000000  -0.000000  -0.000000  -0.000000
    24  H   -0.000000   0.000000   0.000000  -0.000000  -0.000000  -0.000000
    25  C    0.000000  -0.000014   0.000017  -0.000007  -0.000014  -0.000000
    26  C   -0.000000   0.000000   0.000015  -0.000005   0.000001  -0.000000
    27  C    0.000003   0.000016  -0.000536  -0.000015   0.000000   0.000013
    28  C   -0.023911  -0.018481   0.384451  -0.021455  -0.026993  -0.022774
    29  C    0.371036   0.347467  -0.070863   0.006239  -0.002650  -0.007266
    30  H   -0.033640  -0.036129   0.007306  -0.000253  -0.000119  -0.000054
    31  H    0.538996  -0.024866  -0.006997  -0.000072   0.000111   0.004192
    32  H   -0.024866   0.580101  -0.004225   0.000005   0.002527   0.000593
    33  C   -0.006997  -0.004225   5.138013   0.375534   0.372760   0.364316
    34  H   -0.000072   0.000005   0.375534   0.541641  -0.031557  -0.031131
    35  H    0.000111   0.002527   0.372760  -0.031557   0.548334  -0.029608
    36  H    0.004192   0.000593   0.364316  -0.031131  -0.029608   0.560691
 Mulliken charges:
               1
     1  O   -0.641352
     2  H    0.388701
     3  C   -0.241164
     4  H    0.115797
     5  C   -0.186513
     6  H    0.122252
     7  C    0.055055
     8  C    0.072147
     9  C   -0.150810
    10  H    0.134163
    11  C   -0.195235
    12  H    0.115974
    13  C    0.147551
    14  C   -0.155558
    15  H    0.077397
    16  C   -0.068573
    17  H    0.095872
    18  C   -0.206242
    19  H    0.104362
    20  C    0.172802
    21  C   -0.200058
    22  H    0.115320
    23  C   -0.128048
    24  H    0.108810
    25  C    0.152875
    26  C   -0.044648
    27  C    0.000428
    28  C    0.200341
    29  C   -0.467814
    30  H    0.150094
    31  H    0.167260
    32  H    0.151590
    33  C   -0.442294
    34  H    0.162320
    35  H    0.162361
    36  H    0.154836
 Sum of Mulliken charges =  -0.00000
 Mulliken charges with hydrogens summed into heavy atoms:
               1
     1  O   -0.252651
     3  C   -0.125367
     5  C   -0.064261
     7  C    0.055055
     8  C    0.072147
     9  C   -0.016646
    11  C   -0.079262
    13  C    0.147551
    14  C   -0.078161
    16  C    0.027299
    18  C   -0.101880
    20  C    0.172802
    21  C   -0.084738
    23  C   -0.019238
    25  C    0.152875
    26  C   -0.044648
    27  C    0.000428
    28  C    0.200341
    29  C    0.001129
    33  C    0.037223
 Electronic spatial extent (au):  <R**2>=           5352.0196
 Charge=             -0.0000 electrons
 Dipole moment (field-independent basis, Debye):
    X=             -0.0912    Y=              1.1779    Z=             -0.3025  Tot=              1.2196
 Quadrupole moment (field-independent basis, Debye-Ang):
   XX=           -103.3154   YY=           -107.4498   ZZ=           -115.1098
   XY=             -4.9616   XZ=              0.8728   YZ=             -0.8951
 Traceless Quadrupole moment (field-independent basis, Debye-Ang):
   XX=              5.3096   YY=              1.1752   ZZ=             -6.4848
   XY=             -4.9616   XZ=              0.8728   YZ=             -0.8951
 Octapole moment (field-independent basis, Debye-Ang**2):
  XXX=             12.6570  YYY=              3.2954  ZZZ=            -12.9873  XYY=             13.2701
  XXY=             13.8581  XXZ=             -0.7883  XZZ=            -25.5995  YZZ=             -7.4292
  YYZ=              2.4473  XYZ=              2.3724
 Hexadecapole moment (field-independent basis, Debye-Ang**3):
 XXXX=          -4819.2321 YYYY=          -1695.4824 ZZZZ=           -246.0726 XXXY=            -41.2385
 XXXZ=             10.5845 YYYX=            -26.0668 YYYZ=             -2.7683 ZZZX=             41.0611
 ZZZY=             15.1785 XXYY=          -1129.9573 XXZZ=           -900.4375 YYZZ=           -366.6367
 XXYZ=            -12.8398 YYXZ=             -4.1723 ZZXY=             18.3854
 N-N= 1.476649279226D+03 E-N=-4.831524199571D+03  KE= 8.041832947721D+02
 Calling FoFJK, ICntrl=  10005127 FMM=F ISym2X=0 I1Cent= 0 IOpClX= 0 NMat=1 NMatS=1 NMatT=0.
 ***** Axes restored to original set *****
 -------------------------------------------------------------------
 Center     Atomic                   Forces (Hartrees/Bohr)
 Number     Number              X              Y              Z
 -------------------------------------------------------------------
      1        8           0.014930983   -0.008116729   -0.002551101
      2        1          -0.007808558    0.005922202    0.001435340
      3        6           0.006823265   -0.032277013    0.002350399
      4        1          -0.023505508    0.031428117    0.032825935
      5        6           0.002726247    0.004806668   -0.016996076
      6        1          -0.004873302   -0.009991746    0.017605848
      7        6          -0.006950680   -0.017463293    0.022038395
      8        6           0.013965438   -0.004545467   -0.029450516
      9        6          -0.036810412    0.101990086    0.028308767
     10        1           0.018645613   -0.122041641    0.014901392
     11        6          -0.009923683    0.051444455   -0.001493341
     12        1           0.028474621   -0.033803698   -0.039761611
     13        6          -0.009656272   -0.018100201    0.023485129
     14        6          -0.082583894    0.094745765    0.107741762
     15        1           0.104436567   -0.113112113   -0.136860391
     16        6          -0.056831859   -0.076416122    0.134713291
     17        1           0.068747529    0.088145319   -0.162004794
     18        6           0.011720897   -0.074000435    0.010879397
     19        1          -0.017614615    0.107863866   -0.018030370
     20        6          -0.011576279   -0.013883204    0.028409286
     21        6           0.030211439   -0.022563070   -0.051936173
     22        1          -0.009649621    0.072639501   -0.013902104
     23        6           0.014416030   -0.104916649    0.020674444
[...]
 -0.00000729,0.00069235,-0.00010486,-0.00074670,-0.00025527,0.00055766,
 -0.00010519,0.00026086,0.00011399,-0.00028712,-0.00021687,0.00008140,0
 .00021990,-0.00003995,-0.00007070,-0.00001279,0.00014041,0.00010331,-0
 .00001600,-0.00002684,0.00002778,-0.00007747,-0.00001053,-0.00000260,0
 .00000509,0.00001358,-0.00002461,0.00007045,0.00003463,0.00003732,-0.0
 0005869,0.00000087,0.00000351,0.00000318,0.00001633,-0.00005149,-0.000
 04072,-0.00000114,-0.00000447,0.00000409,-0.00001256,-0.00000285,0.000
 01118,0.00000937,-0.00000158,0.00000515,-0.00002881,-0.00001279,0.0000
 3552,0.00001265,0.00004166,-0.00002361,-0.00000564,-0.00000919,0.00000
 134,-0.00001473,-0.00003939,0.00006947,0.00000168,0.00000305,-0.000003
 96,-0.00002559,-0.00004390,-0.00006231,-0.00000673,0.00001259,0.000035
 10,0.00001057,-0.00002267,-0.00002968,0.00499303,0.00929774,0.01066934
 ,-0.06970022,-0.03315169,-0.06094500,-0.00714135,-0.01543944,-0.027799
 57,0.00114524,0.00254772,0.00630418,0.07100979,-0.00054511,0.00184352,
 0.00217286,-0.00014625,-0.00018038,-0.00006630,0.00008000,0.00001821,0
 .00015067,0.00000093,0.00001743,0.00000044,0.00082179,-0.00157857,0.00
 030350,0.00075505,-0.00238807,0.00147222,-0.00004495,0.00003315,-0.000
 40805,-0.00007739,0.00011690,-0.00006006,-0.00000504,0.00008009,0.0000
 0035,0.00001523,0.00002647,0.00001744,-0.00002756,-0.00001251,-0.00002
 280,0.00000011,-0.00000394,-0.00000965,0.00002262,0.00009993,0.0000178
 0,0.00001006,-0.00007110,0.00002835,0.00000218,-0.00000268,-0.00000391
 ,-0.00003725,0.00007911,0.00000982,0.00000165,0.00000100,-0.00000221,0
 .00004576,-0.00004102,-0.00009267,0.00000953,0.00000525,0.00000353,-0.
 00005610,0.00000656,0.00006291,0.00003077,0.00002515,-0.00003064,-0.00
 000989,-0.00000040,-0.00000921,-0.00000620,-0.00001733,0.00002516,0.00
 000166,0.00000103,0.00000499,-0.00003796,-0.00002928,-0.00004713,0.000
 02939,0.00000010,-0.00002965,0.00007225,-0.00004748,-0.00002539,0.0044
 7677,0.00426421,0.00831462,-0.03316211,-0.10270884,-0.10190827,0.00139
 928,0.00153800,0.00529606,-0.00972127,-0.01247073,-0.02787725,0.035680
 88,0.11097815,0.00328896,0.00070432,-0.00785281,0.00053164,-0.00011266
 ,0.00055258,-0.00032198,0.00027809,0.00054759,0.00002768,0.00002636,-0
 .00000560,0.00096465,-0.00048323,-0.00057152,-0.00090046,0.00064702,0.
 00064368,0.00061345,-0.00021039,0.00051067,-0.00003058,0.00019965,-0.0
 0027195,0.00015405,-0.00008911,0.00004084,-0.00036128,-0.00013959,0.00
 011133,0.00005308,0.00001008,0.00018185,0.00002246,-0.00000082,0.00002
 425,-0.00007958,0.00014188,-0.00016658,-0.00002243,-0.00019782,0.00007
 453,-0.00001363,-0.00000410,0.00000154,-0.00006052,0.00018141,0.000136
 72,0.00000025,0.00000780,-0.00000352,0.00008526,-0.00003829,-0.0001339
 2,-0.00001995,-0.00000149,-0.00001071,-0.00003636,0.00008258,0.0000946
 3,0.00003382,-0.00010475,-0.00001756,0.00000269,0.00000154,0.00000651,
 -0.00005195,0.00012858,0.00002216,-0.00000559,-0.00000162,-0.00000383,
 -0.00001449,-0.00023494,0.00005334,0.00002814,0.00000544,-0.00007604,-
 0.00002698,0.00001974,0.00005532,-0.01036779,-0.01363621,-0.01536764,-
 0.05931496,-0.10033212,-0.24126787,-0.00080356,-0.00135423,-0.00279764
 ,0.00145947,0.00141179,0.00387510,0.06578347,0.11294705,0.26012735,-0.
 01685004,-0.00224801,-0.01164665,-0.00010893,-0.00146036,-0.00023075,0
 .00023374,0.00076533,-0.00100125,0.00019339,-0.00001561,0.00010445,-0.
 00032909,-0.00250128,-0.00147384,0.00008812,-0.00001300,-0.00004428,-0
 .00831061,0.01521796,-0.00360577,-0.00015881,-0.00045938,0.00225962,-0
 .00053344,-0.00067111,-0.00152185,0.00009634,0.00077480,-0.00011191,-0
 .00017268,0.00036428,-0.00015281,-0.00000790,-0.00004820,0.00004794,-0
 .00012152,0.00033206,0.00033936,0.00021423,-0.00003697,-0.00036420,-0.
 00000958,0.00000861,-0.00000874,0.00019291,-0.00009981,-0.00028533,-0.
 00000712,-0.00003250,0.00001532,0.00013272,-0.00026302,-0.00013432,-0.
 00001236,-0.00002402,0.00000503,-0.00035454,0.00000201,0.00063589,-0.0
 0001549,0.00061949,-0.00020505,0.00002269,-0.00004413,-0.00001523,-0.0
 0010220,-0.00018881,0.00020216,0.00000583,-0.00001220,-0.00000631,-0.0
 0030060,0.00043207,0.00041615,-0.00003592,-0.00023424,-0.00008446,0.00
 018484,-0.00049547,0.00025800,-0.15909602,0.00512402,-0.00941785,-0.02
 771224,0.00081653,0.00420933,-0.00121306,-0.00080752,0.00190057,0.0007
 0569,0.00101681,-0.00133998,0.00035050,0.00022760,-0.00139590,0.466574
 73,-0.02386256,0.00145172,-0.01209829,-0.00282233,-0.00286513,-0.00326
 436,-0.00073884,-0.00149689,-0.00110154,0.00017250,-0.00014747,0.00007
 396,-0.00073097,-0.00130324,0.00160933,0.00073327,0.00009420,0.0001689
 3,0.02942773,-0.01113678,0.00511738,-0.00020568,0.00032157,0.00121436,
 0.00040460,-0.00027886,0.00007411,-0.00049483,0.00000685,0.00054648,0.
 00052904,0.00030280,-0.00017458,0.00007087,-0.00002856,0.00011043,-0.0
 0037076,0.00064334,-0.00009398,-0.00001387,-0.00017009,-0.00014709,-0.
 00002210,0.00001763,-0.00000637,0.00035311,-0.00031090,-0.00027888,-0.
 00000325,-0.00005070,0.00002983,-0.00001260,-0.00072909,0.00044581,-0.
 00011589,-0.00006057,-0.00004553,0.00008461,0.00011584,0.00019780,-0.0
 0042089,0.00077484,0.00043868,0.00006741,-0.00006657,0.00000392,0.0001
 5845,-0.00042655,-0.00027934,-0.00001724,-0.00002400,-0.00002724,0.000
 12196,0.00106443,-0.00006660,-0.00003952,-0.00013480,-0.00022240,-0.00
 011768,-0.00064110,-0.00025735,0.02619459,-0.07306573,0.00885619,-0.01
 124280,0.00261913,-0.00018433,-0.00204257,-0.00079720,0.00172705,-0.00
 116297,0.00001552,0.00013277,0.00043182,0.00010994,-0.00060161,0.02896
 885,0.58117916,-0.03871117,-0.00269663,-0.01673968,-0.00361238,-0.0042
 7806,-0.00471181,-0.00011544,0.00049862,-0.00000180,0.00008426,0.00007
 707,0.00003256,0.00012208,-0.00044310,-0.00127575,0.00014140,0.0001481
 8,0.00010048,-0.00788991,0.00453751,0.00084178,0.00024300,0.00008047,-
 0.00014224,-0.00019800,0.00045398,-0.00086828,-0.00034727,0.00027225,-
 0.00069247,-0.00027063,-0.00021088,0.00013161,-0.00002937,-0.00000433,
 -0.00003116,0.00006715,0.00009134,-0.00002074,-0.00001482,-0.00010795,
 0.00021860,-0.00000329,0.00000108,-0.00000222,-0.00012807,0.00027908,0
 .00003990,-0.00000992,0.00000058,0.00000974,0.00008412,0.00011571,-0.0
 0024201,0.00004088,-0.00000244,0.00001562,-0.00008781,-0.00001925,0.00
 008601,0.00009824,0.00001324,-0.00019572,-0.00001043,-0.00000719,0.000
 00607,-0.00004038,-0.00002123,0.00009371,0.00001660,0.00000497,-0.0000
 0468,-0.00004467,-0.00030833,0.00008110,-0.00000877,-0.00016058,0.0000
 9369,0.00006227,0.00020676,-0.00002320,-0.00272027,0.00332144,-0.07381
 210,0.02734190,-0.00198436,0.00391901,0.00437154,0.00173386,-0.0041452
 7,-0.00005735,-0.00061157,0.00053044,0.00001108,-0.00033270,0.00055676
 ,-0.02958814,0.00629303,0.59234140,0.00274665,0.00069654,0.00022404,0.
 00030628,0.00015884,0.00002539,-0.00011123,-0.00018396,0.00020962,-0.0
 0000143,-0.00001345,-0.00001107,-0.00013630,0.00058628,0.00038547,0.00
 004007,-0.00011982,-0.00012983,0.00128303,-0.00130525,0.00019133,-0.00
 023512,-0.00017474,0.00018170,0.00027661,0.00056460,0.00005631,-0.0004
 8573,-0.00039765,-0.00086859,0.00040623,0.00005793,-0.00031302,0.00001
 866,0.00003498,0.00004861,-0.00003323,-0.00060799,-0.00003688,-0.00004
 626,0.00026311,-0.00007850,-0.00000987,0.00000801,0.00001231,0.0000744
 0,-0.00017763,-0.00002122,-0.00000264,-0.00000417,0.00001302,-0.000137
 97,0.00022162,0.00017688,-0.00000784,-0.00000684,-0.00000560,0.0001861
 1,-0.00011408,-0.00027600,-0.00003123,-0.00020695,0.00013271,-0.000002
 42,0.00000423,0.00001532,0.00003397,0.00010938,-0.00012673,0.00000541,
 -0.00000292,-0.00001272,0.00016243,-0.00041793,-0.00009574,-0.00014596
 ,0.00007849,0.00030036,-0.00004083,0.00068008,-0.00022055,-0.01805048,
 -0.01042780,0.02595461,-0.00630441,0.00155451,-0.00263968,-0.00125603,
 -0.00076934,0.00168351,0.00014439,-0.00001848,-0.00022438,0.00026823,0
 .00024212,-0.00003942,-0.13100686,-0.04950045,0.11347854,0.14269822,-0
 .00050554,-0.00005160,0.00014514,0.00006602,-0.00004085,-0.00012048,0.
 00004892,0.00017920,-0.00013346,-0.00001336,0.00000917,-0.00000079,0.0
 0020508,-0.00033523,-0.00005944,-0.00003393,0.00001641,0.00001351,0.00
 012708,0.00049907,-0.00076229,0.00049733,-0.00028718,-0.00010194,0.000
 25265,0.00036593,0.00072205,0.00011743,0.00003745,0.00009477,-0.000141
 06,-0.00033556,0.00029571,0.00002173,0.00001624,-0.00004425,-0.0000311
 8,0.00017602,0.00005229,-0.00000452,-0.00013828,0.00004247,0.00000963,
 -0.00000180,-0.00000831,-0.00006537,0.00012737,0.00005254,0.00000372,0
 .00000333,-0.00000519,0.00007363,-0.00001582,-0.00014081,0.00000444,0.
 00000321,-0.00000001,-0.00008560,0.00011505,0.00012550,0.00008331,0.00
 000629,-0.00016733,-0.00000046,0.00000252,-0.00000475,-0.00004974,-0.0
 0003311,0.00012111,0.,0.00000066,0.00000509,-0.00002404,0.00005992,0.0
 0004416,0.00005277,-0.00013162,-0.00001978,0.00002895,-0.00010252,-0.0
 0010802,0.00329406,0.00008896,-0.00504788,0.00093000,0.00011331,0.0000
 5766,0.00028622,0.00066486,-0.00008567,0.00024942,0.00046547,-0.000216
 86,-0.00001305,-0.00006045,0.00034634,-0.05093087,-0.08044145,0.069893
 66,0.05330267,0.08200440,0.00062663,0.00029902,0.00122635,0.00018528,0
 .00010988,0.00010208,-0.00005370,-0.00017831,0.00013906,-0.00000073,-0
 .00000858,0.00000122,-0.00006668,0.00032420,0.00011764,-0.00004910,0.0
 0003584,0.00003011,0.00035822,-0.00018570,-0.00016272,-0.00063630,0.00
 021780,0.00014829,-0.00065943,0.00029572,-0.00128610,-0.00123106,0.000
 56545,-0.00141220,0.00006766,0.00017249,-0.00020555,-0.00001347,0.0000
 0976,-0.00000104,0.00005443,-0.00017550,0.00004713,-0.00004638,0.00015
 821,0.00002300,0.00000306,0.00000291,0.00000501,0.00004091,-0.00011553
 ,-0.00003831,-0.00000111,-0.00000262,0.00000349,-0.00008240,0.00008847
 ,0.00013203,-0.00000201,-0.00000239,-0.00000341,0.00014697,-0.00024140
 ,-0.00019735,-0.00007770,-0.00001905,0.00014733,-0.00000040,0.00000082
 ,0.00001002,0.00002578,-0.00004627,-0.00006383,0.00000166,0.00000772,-
 0.00000173,0.00003023,-0.00003568,-0.00003375,0.00000900,0.00020699,-0
 .00008963,0.00007903,-0.00031510,0.00010817,-0.00454954,-0.00290864,0.
 00424901,-0.00061094,-0.00025241,0.00038217,-0.00023982,0.00013097,0.0
 0044240,-0.00013059,-0.00001574,-0.00010630,-0.00017954,0.00013802,0.0
 0033134,0.11689933,0.06875382,-0.20853416,-0.12512160,-0.07736986,0.22
 572231,-0.00805140,0.00099062,-0.00288523,-0.00062205,-0.00151976,-0.0
 0150931,-0.00012807,0.00028366,0.00005780,0.00000058,0.00002873,0.0000
 0087,0.00022155,0.00014167,-0.00002247,-0.00012582,0.00002316,0.000050
 00,0.00046452,-0.00106974,0.00047635,0.00009961,-0.00000950,-0.0003597
 1,0.00014628,0.00013377,0.00019896,-0.00020882,-0.00013099,0.00001948,
 -0.00001215,-0.00007801,0.00004775,0.00000823,0.00001342,-0.00000238,0
 .00001422,-0.00001455,-0.00006431,-0.00008748,-0.00007811,0.00019204,-
 0.00000084,0.00000059,0.00000376,-0.00006838,0.00016562,0.00006619,-0.
 00000380,0.00000178,0.00000528,0.00003386,0.00006562,-0.00007928,-0.00
 000032,-0.00000501,-0.00000552,0.00006242,-0.00009825,-0.00006843,-0.0
 0002434,-0.00004071,0.00005104,-0.00000160,-0.00000059,0.00001000,0.00
 001331,0.00005783,-0.00005700,-0.00000020,0.00000770,-0.00000586,0.000
 03259,-0.00019372,0.00002372,-0.00000799,0.00003214,-0.00001388,0.0000
 3051,0.00003618,-0.00002363,-0.00473936,-0.01548893,-0.02466579,0.0010
 2322,-0.00042951,-0.00076174,0.00040857,0.00027308,0.00011355,-0.00009
 327,-0.00003123,0.00009173,-0.00062953,0.00001904,0.00077302,-0.068477
 83,-0.03379223,-0.05789137,0.00599715,0.01045474,0.01468707,0.07374888
 ,0.00091029,0.00080791,0.00063028,0.00001912,0.00075099,-0.00005514,-0
 .00001025,-0.00009018,0.00006836,-0.00000333,0.00000273,0.00000108,-0.
 00008445,0.00018814,-0.00000893,-0.00000076,0.00003702,-0.00000686,0.0
 0016820,0.00016379,0.00054189,0.00009557,-0.00003446,-0.00018616,-0.00
 001052,-0.00000133,0.00026991,0.00000029,-0.00012240,-0.00006681,0.000
 03641,0.00004279,-0.00003386,0.00000154,0.00000356,-0.00000069,0.00002
 854,-0.00013741,-0.00000779,-0.00003866,0.00004795,0.00005190,0.000002
 18,-0.00000280,0.00000044,-0.00002238,0.00000596,0.00002394,0.00000168
 ,0.00000511,-0.00000322,-0.00002458,0.00007132,0.00001645,0.00000143,0
 .00000544,-0.00000169,0.00006234,-0.00006491,-0.00010127,-0.00001291,-
 0.00008932,0.00005678,-0.00000422,0.00000908,0.00000348,0.00001224,0.0
 0004878,-0.00004823,-0.00000019,0.00000639,0.00000269,0.00005765,-0.00
 012038,-0.00003860,-0.00001379,0.00004907,0.00003692,-0.00001224,0.000
 07825,0.00002529,0.00151814,0.00050508,0.00506953,-0.00011708,-0.00012
 381,-0.00028283,0.00005621,-0.00002716,0.00030493,-0.00007803,0.000004
 35,-0.00016654,-0.00017949,0.00037266,0.00032949,-0.03568676,-0.112552
 51,-0.10876497,0.00440578,0.00590191,0.00995215,0.03812976,0.11762265,
 -0.00174327,0.00072418,0.00028722,-0.00005480,-0.00043615,0.00017268,0
 .00000957,0.00008649,-0.00001732,-0.00001460,0.00001242,-0.00000779,0.
 00007337,0.00010116,0.00010879,-0.00007429,-0.00001429,0.00001430,0.00
 023308,-0.00052798,0.00046629,0.00005150,0.00034272,-0.00022643,-0.000
 15337,-0.00019412,-0.00036026,0.00002147,0.00015182,0.00023651,-0.0000
 8769,-0.00000904,0.00016229,-0.00000204,-0.00002108,0.00001190,-0.0000
 4592,0.00035302,-0.00006668,0.00004878,-0.00020316,-0.00000823,-0.0000
 0567,-0.00000396,-0.00000283,-0.00002687,0.00010545,0.00004390,0.00000
 036,0.00000155,-0.00000613,0.00009149,-0.00017446,-0.00010031,-0.00000
 482,0.00000187,0.00000075,-0.00013927,0.00017602,0.00019448,0.00004351
 ,0.00008242,-0.00010539,0.00000377,-0.00000285,-0.00001189,-0.00001287
 ,-0.00002996,0.00006716,-0.00000716,-0.00000926,0.00000386,-0.00007823
 ,0.00025004,0.00003777,0.00007263,-0.00006769,-0.00014638,0.00000763,-
 0.00019732,0.00004792,0.00064022,-0.00209987,-0.00550701,0.00094486,-0
 .00002932,-0.00015865,-0.00003425,0.00021395,0.00021491,-0.00001123,0.
 00010311,0.00005527,0.00039376,0.00010905,0.00062747,-0.06097727,-0.10
 843602,-0.23407406,-0.00751509,-0.01274471,-0.01924629,0.06593574,0.11
 974645,0.25215610,0.00257501,-0.00054359,0.00185766,0.00060720,-0.0000
 3267,0.00032434,0.00014296,0.00062165,0.00043603,-0.00004844,0.0000629
 9,-0.00003128,0.00029575,0.00036661,-0.00060819,-0.00022247,-0.0000286
 3,-0.00003995,-0.00540851,0.00015405,-0.00031609,0.00002589,-0.0002881
 4,-0.00005652,0.00010061,-0.00013687,0.00026540,0.00009320,-0.00002829
 ,-0.00012010,-0.00001622,-0.00003031,-0.00000192,-0.00001098,0.0000130
 4,-0.00003298,0.00012002,-0.00023170,-0.00012659,0.00002629,-0.0000467
 7,0.00000021,0.00000158,-0.00000974,0.00000340,-0.00014312,0.00017612,
 0.00017162,0.00000504,0.00002517,-0.00001598,0.00004875,0.00022108,-0.
 00021859,0.00002427,0.00002632,0.00000988,-0.00006851,0.00011284,-0.00
 001258,0.00018068,-0.00041833,-0.00017145,-0.00001645,0.00003529,-0.00
 000509,-0.00007328,0.00031707,0.00005449,0.00000327,-0.00000182,0.0000
 1199,-0.00002816,-0.00056081,0.00007971,-0.00001466,0.00002698,0.00016
 586,0.00001651,0.00056975,-0.00001846,-0.00907172,0.03312818,-0.005077
 48,0.00132541,0.00103273,-0.00052699,0.00041747,-0.00033529,-0.0001529
 0,-0.00060468,-0.00062602,0.00048517,-0.00010818,-0.00006762,0.0000453
 1,-0.05405889,0.04001123,-0.00438357,0.00339802,-0.01821105,0.00053724
 ,0.00097776,-0.00920776,0.00241696,0.05950858,-0.00059380,0.00101591,-
 0.00022537,-0.00010973,0.00026905,0.00008966,0.00000482,-0.00069658,0.
 00016516,-0.00004775,-0.00005895,-0.00002600,-0.00016478,0.00098913,0.
 00084318,-0.00000328,0.00000536,-0.00007396,0.00219352,-0.00041854,0.0
 0011567,0.00028130,0.00050773,-0.00057878,-0.00001617,0.00024295,-0.00
 009838,-0.00000257,-0.00019129,0.00003454,0.00003919,-0.00006316,0.000
 02882,-0.00000323,-0.00000753,0.00003246,-0.00008311,0.00005024,0.0000
 6092,-0.00000790,0.00012295,-0.00002485,-0.00000681,0.00000752,0.00000
 216,0.00008689,-0.00020331,-0.00007144,-0.00000290,-0.00001304,0.00001
 078,-0.00010802,-0.00008150,0.00022720,0.00000247,-0.00001286,0.000003
 19,0.00007105,-0.00001929,-0.00012239,-0.00005069,0.00015682,0.0000572
 9,-0.00000349,-0.00002071,0.00000195,0.00006093,-0.00027572,0.00002164
 ,0.00000060,-0.00000233,-0.00000772,0.00006118,0.00044241,-0.00023228,
 0.00004300,0.00000730,-0.00010772,-0.00003666,-0.00027810,0.00003401,-
 0.00014726,-0.00596662,0.00046000,-0.00078913,0.00005843,0.00005544,-0
 .00001273,0.00035069,-0.00006371,0.00015040,0.00074347,-0.00027937,0.0
 0008543,-0.00000408,0.00007385,0.04160288,-0.30198881,0.03193078,0.001
 48028,-0.00888125,0.00040256,0.00212174,-0.01336426,0.00263952,-0.0460
 9567,0.32757798,0.00026890,0.00028422,0.00018894,0.00031022,-0.0001870
 4,0.00000476,0.00000447,0.00049237,-0.00003274,0.00000316,0.00003064,0
 .00000775,0.00015413,-0.00028051,-0.00028462,-0.00005123,-0.00003317,0
 .00000582,-0.00146692,0.00022177,0.00077993,0.00016048,-0.00000967,-0.
 00039911,-0.00017587,0.00001734,-0.00002790,0.00010340,0.00027361,-0.0
 0001360,-0.00017807,-0.00012943,0.00011650,-0.00000739,0.00001130,-0.0
 0003355,0.00009530,0.00007041,-0.00003477,-0.00007436,-0.00014624,0.00
 022568,0.00000881,-0.00000512,-0.00000032,-0.00013190,0.00027603,0.000
 10651,-0.00000204,0.00001085,-0.00000453,0.00009465,0.00008129,-0.0002
 0304,0.00000565,0.00000623,-0.00000368,0.00000181,-0.00009666,-0.00000
 266,0.00002195,-0.00009303,-0.00001262,-0.00000531,0.00001168,0.000004
 34,-0.00000409,0.00013709,-0.00003211,-0.00000128,0.00000870,0.0000024
 8,-0.00003054,-0.00026298,0.00010355,0.00002708,0.00004320,-0.00007463
 ,0.00003672,-0.00006887,0.00005995,-0.00185684,0.00607583,-0.00169695,
 0.00067416,-0.00050079,-0.00017469,-0.00012570,0.00006724,-0.00016860,
 0.00044156,-0.00004161,0.00031105,0.00007048,-0.00014896,-0.00002838,-
 0.00368126,0.03149161,-0.05358114,-0.00535311,0.02512983,-0.00198579,0
 .00561157,-0.02735838,0.00513608,0.00505142,-0.03537878,0.05174208\\0.
 00000771,0.00000680,0.00000459,0.00000293,-0.00000114,0.00000720,-0.00
 000643,-0.00002557,0.00001560,0.00000354,0.00000302,0.00000035,-0.0000
 1553,0.00002931,0.00001749,0.00000121,0.00000197,-0.00000362,0.0000218
 1,0.00001345,-0.00004346,-0.00002001,-0.00000442,0.00003684,0.00001284
 ,-0.00000399,-0.00002356,-0.00000395,0.00000214,-0.00000284,-0.0000095
 9,0.00000252,0.00000813,0.00000422,0.00000052,-0.00000152,0.00000825,-
 0.00000595,-0.00001408,0.00000908,-0.00000657,-0.00001543,-0.00001223,
 0.00000942,0.00001752,0.00000382,0.00000149,-0.00002011,-0.00000343,-0
 .00000681,0.00001369,-0.00000241,-0.00000236,0.00000545,0.00000436,0.0
 0000419,0.00000381,-0.00000218,0.00000741,0.00000150,0.00002743,0.0000
 1047,-0.00005948,-0.00000779,0.00000252,0.00000565,-0.00002166,-0.0000
 1711,0.00003832,0.00000093,-0.00000120,0.00000343,0.00000498,0.0000126
 2,-0.00001278,-0.00000945,-0.00000272,0.00002535,0.00001180,0.00000300
 ,-0.00001560,-0.00001355,-0.00001978,0.00000209,0.00000448,-0.00000478
 ,0.00000461,-0.00000016,-0.00000475,0.00000192,-0.00000119,0.00000217,
 0.00000069,-0.00000168,0.00000416,-0.00000255,0.00000499,-0.00000925,-
 0.00000359,0.00000453,-0.00000286,0.00000818,-0.00000490,0.00000171,-0
 .00000075,-0.00000277,0.00000037,-0.00000305\\\@


 I (ERNEST RUTHERFORD) CAME INTO THE ROOM, WHICH WAS HALF DARK, AND PRESENTLY
 SPOTTED LORD KELVIN IN THE AUDIENCE AND REALIZED I WAS IN TROUBLE AT
 THE LAST PART OF MY SPEECH DEALING THE AGE OF THE EARTH, WHERE MY VIEWS
 CONFLICTED WITH HIS.  TO MY RELIEF KELVIN FELL FAST ASLEEP, BUT AS I CAME
 TO THE IMPORTANT POINT, I SAW THE OLD BIRD SIT UP AND COCK A BALEFUL GLANCE
 AT ME! THEN A SUDDEN INSPIRATION CAME AND I SAID LORD KELVIN HAD LIMITED
 THE AGE OF THE EARTH PROVIDED NO NEW SOURCE WAS DISCOVERED. THAT
 PROPHETIC UTTERANCE REFERS TO WHAT WE ARE NOW CONSIDERING TONIGHT, RADIUM!
 BEHOLD!  THE OLD BOY BEAMED UPON ME.
 Job cpu time:       0 days 13 hours  2 minutes 41.3 seconds.
 Elapsed time:       0 days  0 hours 26 minutes 47.8 seconds.
 File lengths (MBytes):  RWF=   1617 Int=      0 D2E=      0 Chk=     16 Scr=      1
 Normal termination of Gaussian 16 at Thu Feb 17 21:12:43 2022.
