 Entering Gaussian System, Link 0=g16
 Input=Naphthalene90z.com
 Output=Naphthalene90z.log
 Initial command:
 /usr/local/g16/l1.exe "/home/padawan/Ingrid/Naphthalene/Gau-6786.inp" -scrdir="/home/padawan/Ingrid/Naphthalene/"
 Entering Link 1 = /usr/local/g16/l1.exe PID=      6788.
  
 Copyright (c) 1988-2017, Gaussian, Inc.  All Rights Reserved.
  
 This is part of the Gaussian(R) 16 program.  It is based on
 the Gaussian(R) 09 system (copyright 2009, Gaussian, Inc.),
 the Gaussian(R) 03 system (copyright 2003, Gaussian, Inc.),
 the Gaussian(R) 98 system (copyright 1998, Gaussian, Inc.),
 the Gaussian(R) 94 system (copyright 1995, Gaussian, Inc.),
 the Gaussian 92(TM) system (copyright 1992, Gaussian, Inc.),
 the Gaussian 90(TM) system (copyright 1990, Gaussian, Inc.),
 the Gaussian 88(TM) system (copyright 1988, Gaussian, Inc.),
 the Gaussian 86(TM) system (copyright 1986, Carnegie Mellon
 University), and the Gaussian 82(TM) system (copyright 1983,
 Carnegie Mellon University). Gaussian is a federally registered
 trademark of Gaussian, Inc.
  
 This software contains proprietary and confidential information,
 including trade secrets, belonging to Gaussian, Inc.
  
 This software is provided under written license and may be
 used, copied, transmitted, or stored only in accord with that
 written license.
  
 The following legend is applicable only to US Government
 contracts under FAR:
  
                    RESTRICTED RIGHTS LEGEND
  
 Use, reproduction and disclosure by the US Government is
 subject to restrictions as set forth in subparagraphs (a)
 and (c) of the Commercial Computer Software - Restricted
 Rights clause in FAR 52.227-19.
  
 Gaussian, Inc.
 340 Quinnipiac St., Bldg. 40, Wallingford CT 06492
  
  
 ---------------------------------------------------------------
 Warning -- This program may not be used in any manner that
 competes with the business of Gaussian, Inc. or will provide
 assistance to any competitor of Gaussian, Inc.  The licensee
 of this program is prohibited from giving any competitor of
 Gaussian, Inc. access to this program.  By using this program,
 the user acknowledges that Gaussian, Inc. is engaged in the
 business of creating and licensing software in the field of
 computational chemistry and represents and warrants to the
 licensee that it is not a competitor of Gaussian, Inc. and that
 it will not use this program in any manner prohibited above.
 ---------------------------------------------------------------
  

 Cite this work as:
 Gaussian 16, Revision B.01,
 M. J. Frisch, G. W. Trucks, H. B. Schlegel, G. E. Scuseria, 
 M. A. Robb, J. R. Cheeseman, G. Scalmani, V. Barone, 
 G. A. Petersson, H. Nakatsuji, X. Li, M. Caricato, A. V. Marenich, 
 J. Bloino, B. G. Janesko, R. Gomperts, B. Mennucci, H. P. Hratchian, 
 J. V. Ortiz, A. F. Izmaylov, J. L. Sonnenberg, D. Williams-Young, 
 F. Ding, F. Lipparini, F. Egidi, J. Goings, B. Peng, A. Petrone, 
 T. Henderson, D. Ranasinghe, V. G. Zakrzewski, J. Gao, N. Rega, 
 G. Zheng, W. Liang, M. Hada, M. Ehara, K. Toyota, R. Fukuda, 
 J. Hasegawa, M. Ishida, T. Nakajima, Y. Honda, O. Kitao, H. Nakai, 
 T. Vreven, K. Throssell, J. A. Montgomery, Jr., J. E. Peralta, 
 F. Ogliaro, M. J. Bearpark, J. J. Heyd, E. N. Brothers, K. N. Kudin, 
 V. N. Staroverov, T. A. Keith, R. Kobayashi, J. Normand, 
 K. Raghavachari, A. P. Rendell, J. C. Burant, S. S. Iyengar, 
 J. Tomasi, M. Cossi, J. M. Millam, M. Klene, C. Adamo, R. Cammi, 
 J. W. Ochterski, R. L. Martin, K. Morokuma, O. Farkas, 
 J. B. Foresman, and D. J. Fox, Gaussian, Inc., Wallingford CT, 2016.
 
 ******************************************
 Gaussian 16:  EM64L-G16RevB.01 20-Dec-2017
                30-May-2022 
 ******************************************
 %nproc=30
 Will use up to   30 processors via shared memory.
 %mem=28GB
 %Chk=Naphthalene90z.chk
 ---------------------
 #n wB97xd/6-31G(d) SP
 ---------------------
 1/38=1,172=1/1;
 2/12=2,17=6,18=5,40=1/2;
 3/5=1,6=6,7=1,11=2,25=1,30=1,74=-58/1,2,3;
 4//1;
 5/5=2,38=5/2;
 6/7=2,8=2,9=2,10=2,28=1/1;
 99/5=1,9=1/99;
 -----
 Title
 -----
 Symbolic Z-matrix:
 Charge =  0 Multiplicity = 1
 C                     2.4044    0.7559    0. 
 C                     2.4328   -0.6584    0. 
 C                     1.2672   -1.3753    0. 
 C                     0.0142   -0.705     0. 
 C                    -0.0142    0.7048    0. 
 C                     1.2108    1.4252    0. 
 C                    -1.2672    1.3754    0. 
 C                    -2.4328    0.6585    0. 
 C                    -2.4043   -0.7558    0. 
 C                    -1.2108   -1.4254    0. 
 H                     3.3509    1.3062    0. 
 H                     3.4006   -1.1703    0. 
 H                     1.281    -2.471     0. 
 H                     1.1803    2.5206    0. 
 H                    -1.2808    2.471     0. 
 H                    -3.4008    1.1701    0. 
 H                    -3.3508   -1.306     0. 
 H                    -1.1805   -2.5207    0. 
 C                    -0.7559    2.40438   4. 
 C                     0.6584    2.43278   4. 
 C                     1.3753    1.26718   4. 
 C                     0.705     0.01418   4. 
 C                    -0.7048   -0.01422   4. 
 C                    -1.4252    1.21078   4. 
 C                    -1.3754   -1.26722   4. 
 C                    -0.6585   -2.43282   4. 
 C                     0.7558   -2.40432   4. 
 C                     1.4254   -1.21082   4. 
 H                    -1.3062    3.35088   4. 
 H                     1.1703    3.40058   4. 
 H                     2.471     1.28098   4. 
 H                    -2.5206    1.18028   4. 
 H                    -2.471    -1.28082   4. 
 H                    -1.1701   -3.40082   4. 
 H                     1.306    -3.35082   4. 
 H                     2.5207   -1.18052   4. 
 
                          Input orientation:                          
 ---------------------------------------------------------------------
 Center     Atomic      Atomic             Coordinates (Angstroms)
 Number     Number       Type             X           Y           Z
 ---------------------------------------------------------------------
      1          6           0        2.404400    0.755900    0.000000
      2          6           0        2.432800   -0.658400    0.000000
      3          6           0        1.267200   -1.375300    0.000000
      4          6           0        0.014200   -0.705000    0.000000
      5          6           0       -0.014200    0.704800    0.000000
      6          6           0        1.210800    1.425200    0.000000
      7          6           0       -1.267200    1.375400    0.000000
      8          6           0       -2.432800    0.658500    0.000000
      9          6           0       -2.404300   -0.755800    0.000000
     10          6           0       -1.210800   -1.425400    0.000000
     11          1           0        3.350900    1.306200    0.000000
     12          1           0        3.400600   -1.170300    0.000000
     13          1           0        1.281000   -2.471000    0.000000
     14          1           0        1.180300    2.520600    0.000000
     15          1           0       -1.280800    2.471000    0.000000
     16          1           0       -3.400800    1.170100    0.000000
     17          1           0       -3.350800   -1.306000    0.000000
     18          1           0       -1.180500   -2.520700    0.000000
     19          6           0       -0.755900    2.404380    4.000000
     20          6           0        0.658400    2.432780    4.000000
     21          6           0        1.375300    1.267180    4.000000
     22          6           0        0.705000    0.014180    4.000000
     23          6           0       -0.704800   -0.014220    4.000000
     24          6           0       -1.425200    1.210780    4.000000
     25          6           0       -1.375400   -1.267220    4.000000
     26          6           0       -0.658500   -2.432820    4.000000
     27          6           0        0.755800   -2.404320    4.000000
     28          6           0        1.425400   -1.210820    4.000000
     29          1           0       -1.306200    3.350880    4.000000
     30          1           0        1.170300    3.400580    4.000000
     31          1           0        2.471000    1.280980    4.000000
     32          1           0       -2.520600    1.180280    4.000000
     33          1           0       -2.471000   -1.280820    4.000000
     34          1           0       -1.170100   -3.400820    4.000000
     35          1           0        1.306000   -3.350820    4.000000
     36          1           0        2.520700   -1.180520    4.000000
 ---------------------------------------------------------------------
                    Distance matrix (angstroms):
                    1          2          3          4          5
     1  C    0.000000
     2  C    1.414585   0.000000
     3  C    2.415624   1.368418   0.000000
     4  C    2.801301   2.419049   1.421025   0.000000
     5  C    2.419140   2.801093   2.443113   1.410086   0.000000
     6  C    1.368446   2.415507   2.801068   2.443277   1.421127
     7  C    3.723497   4.222125   3.740259   2.443369   1.421166
     8  C    4.838181   5.040664   4.222125   2.801239   2.419043
     9  C    5.040717   4.838081   3.723398   2.419033   2.801059
    10  C    4.222291   3.723454   2.478506   1.421127   2.443277
    11  H    1.094848   2.168539   3.395916   3.895958   3.418418
    12  H    2.168562   1.094842   2.143227   3.418217   3.895749
    13  H    3.416857   2.147594   1.095787   2.173370   3.429759
    14  H    2.147693   3.416840   3.896869   3.429910   2.173467
    15  H    4.064759   4.856333   4.613711   3.429869   2.173416
    16  H    5.819958   6.113452   5.316887   3.895924   3.418415
    17  H    6.113408   5.819744   4.618520   3.418249   3.895666
    18  H    4.856708   4.064984   2.702439   2.173494   3.429884
    19  C    5.357703   5.962250   5.863354   5.124578   4.408933
    20  C    4.675515   5.357601   5.556268   5.124515   4.408889
    21  C    4.161785   4.563569   4.795246   4.662841   4.271649
    22  C    4.408867   4.408816   4.271618   4.122429   4.122403
    23  C    5.124472   5.124403   4.662759   4.122395   4.122368
    24  C    5.556325   5.863275   5.471456   4.662841   4.271643
    25  C    5.863438   5.556352   4.795312   4.271660   4.662803
    26  C    5.962323   5.357677   4.563625   4.408842   5.124430
    27  C    5.357693   4.675528   4.161780   4.408816   5.124405
    28  C    4.563598   4.161733   4.006505   4.271690   4.662837
    29  H    6.041728   6.786343   6.705160   5.847531   4.966991
    30  H    4.951498   5.836885   6.230443   5.847423   4.966918
    31  H    4.034866   4.445521   4.950248   5.097056   4.744281
    32  H    6.358909   6.626984   6.072760   5.097008   4.744273
    33  H    6.627047   6.358825   5.475679   4.744237   5.096916
    34  H    6.786411   6.041668   5.103250   4.966892   5.847411
    35  H    5.837091   4.951647   4.461411   4.966801   5.847306
    36  H    4.445587   4.034890   4.196332   4.744329   5.097073
                    6          7          8          9         10
     6  C    0.000000
     7  C    2.478500   0.000000
     8  C    3.723392   1.368418   0.000000
     9  C    4.222050   2.415577   1.414587   0.000000
    10  C    3.740330   2.801368   2.415766   1.368505   0.000000
    11  H    2.143406   4.618618   5.819854   6.113442   5.317024
    12  H    3.395857   5.316855   6.113351   5.819680   4.618451
    13  H    3.896832   4.613905   4.856550   4.064892   2.702285
    14  H    1.095825   2.702173   4.064715   4.856352   4.613922
    15  H    2.702178   1.095684   2.147617   3.416795   3.897029
    16  H    4.618650   2.143454   1.094878   2.168433   3.395986
    17  H    5.316733   3.395776   2.168406   1.094798   2.143328
    18  H    4.613940   3.897065   3.416953   2.147687   1.095719
    19  C    4.563628   4.161758   4.675478   5.357608   5.556451
    20  C    4.161774   4.563550   5.357573   5.962145   5.863400
    21  C    4.006499   4.795260   5.556268   5.863261   5.471554
    22  C    4.271629   4.662885   5.124543   5.124511   4.662905
    23  C    4.662773   4.271690   4.408916   4.408882   4.271705
    24  C    4.795255   4.006503   4.161763   4.563559   4.795353
    25  C    5.471522   4.795326   4.563605   4.161753   4.006509
    26  C    5.863327   5.556353   5.357649   4.675491   4.161722
    27  C    5.556280   5.863345   5.962217   5.357597   4.563529
    28  C    4.795274   5.471620   5.863452   5.556406   4.795372
    29  H    5.103286   4.461395   4.951579   5.837006   6.230726
    30  H    4.461364   5.103211   6.041633   6.786255   6.705201
    31  H    4.196296   5.475678   6.358831   6.626992   6.072902
    32  H    5.475704   4.196318   4.034844   4.445439   4.950267
    33  H    6.072742   4.950216   4.445494   4.034860   4.196309
    34  H    6.705159   6.230707   5.837165   4.951705   4.461383
    35  H    6.230524   6.705111   6.786256   6.041561   5.103090
    36  H    4.950315   6.072966   6.627153   6.358932   5.475770
                   11         12         13         14         15
    11  H    0.000000
    12  H    2.476999   0.000000
    13  H    4.307171   2.486870   0.000000
    14  H    2.487222   4.307258   4.992616   0.000000
    15  H    4.775919   5.930815   5.566523   2.461600   0.000000
    16  H    6.753072   7.192810   5.931008   4.776016   2.487316
    17  H    7.192800   6.752764   4.776065   5.930745   4.307044
    18  H    5.931168   4.775988   2.462002   5.566694   4.992708
    19  C    5.837106   6.786371   6.627088   4.445490   4.034843
    20  C    4.951640   6.041676   6.358828   4.034860   4.445442
    21  C    4.461448   5.103249   5.475663   4.196318   4.950157
    22  C    4.966901   4.966815   4.744249   4.744265   5.096996
    23  C    5.847411   5.847293   5.096977   5.096951   4.744270
    24  C    6.230589   6.705064   6.072810   4.950178   4.196309
    25  C    6.705252   6.230535   4.950308   6.072823   5.475695
    26  C    6.786425   5.836973   4.445573   6.627032   6.358829
    27  C    6.041730   4.951542   4.034883   6.358855   6.626951
    28  C    5.103228   4.461284   4.196297   5.475725   6.072834
    29  H    6.470649   7.654739   7.522492   4.782473   4.095709
    30  H    5.014124   6.470485   7.105470   4.095664   4.782469
    31  H    4.095712   4.782565   5.611903   4.382073   5.611787
    32  H    7.105657   7.522356   6.616949   5.611873   4.382130
    33  H    7.522446   7.105484   5.611954   6.616856   5.611838
    34  H    7.654768   6.470434   4.782516   7.522473   7.105668
    35  H    6.470661   5.014182   4.095694   7.105587   7.522308
    36  H    4.782573   4.095648   4.382031   5.612037   6.617024
                   16         17         18         19         20
    16  H    0.000000
    17  H    2.476605   0.000000
    18  H    4.307173   2.487106   0.000000
    19  C    4.951661   6.041558   6.358986   0.000000
    20  C    5.837077   6.786174   6.627105   1.414585   0.000000
    21  C    6.230614   6.705019   6.072903   2.415624   1.368418
    22  C    5.847542   5.847426   5.097129   2.801301   2.419049
    23  C    4.966994   4.966892   4.744337   2.419140   2.801093
    24  C    4.461463   5.103148   5.475748   1.368446   2.415507
    25  C    5.103212   4.461357   4.196332   3.723497   4.222125
    26  C    6.041626   4.951586   4.034874   4.838181   5.040664
    27  C    6.786295   5.836992   4.445537   5.040717   4.838081
    28  C    6.705295   6.230662   4.950404   4.222291   3.723454
    29  H    5.014295   6.470465   7.105720   1.094848   2.168539
    30  H    6.470703   7.654557   7.522487   2.168562   1.094842
    31  H    7.105655   7.522355   6.617116   3.416857   2.147594
    32  H    4.095712   4.782345   5.611873   2.147693   3.416840
    33  H    4.782420   4.095691   4.382088   4.064759   4.856333
    34  H    6.470652   5.014352   4.095695   5.819958   6.113452
    35  H    7.654586   6.470477   4.782445   6.113408   5.819744
    36  H    7.522604   7.105650   5.612037   4.856708   4.064984
                   21         22         23         24         25
    21  C    0.000000
    22  C    1.421025   0.000000
    23  C    2.443113   1.410086   0.000000
    24  C    2.801068   2.443277   1.421127   0.000000
    25  C    3.740259   2.443369   1.421166   2.478500   0.000000
    26  C    4.222125   2.801239   2.419043   3.723392   1.368418
    27  C    3.723398   2.419033   2.801059   4.222050   2.415577
    28  C    2.478506   1.421127   2.443277   3.740330   2.801368
    29  H    3.395916   3.895958   3.418418   2.143406   4.618618
    30  H    2.143227   3.418217   3.895749   3.395857   5.316855
    31  H    1.095787   2.173370   3.429759   3.896832   4.613905
    32  H    3.896869   3.429910   2.173467   1.095825   2.702173
    33  H    4.613711   3.429869   2.173416   2.702178   1.095684
    34  H    5.316887   3.895924   3.418415   4.618650   2.143454
    35  H    4.618520   3.418249   3.895666   5.316733   3.395776
    36  H    2.702439   2.173494   3.429884   4.613940   3.897065
                   26         27         28         29         30
    26  C    0.000000
    27  C    1.414587   0.000000
    28  C    2.415766   1.368505   0.000000
    29  H    5.819854   6.113442   5.317024   0.000000
    30  H    6.113351   5.819680   4.618451   2.476999   0.000000
    31  H    4.856550   4.064892   2.702285   4.307171   2.486870
    32  H    4.064715   4.856352   4.613922   2.487222   4.307258
    33  H    2.147617   3.416795   3.897029   4.775919   5.930815
    34  H    1.094878   2.168433   3.395986   6.753072   7.192810
    35  H    2.168406   1.094798   2.143328   7.192800   6.752764
    36  H    3.416953   2.147687   1.095719   5.931168   4.775988
                   31         32         33         34         35
    31  H    0.000000
    32  H    4.992616   0.000000
    33  H    5.566523   2.461600   0.000000
    34  H    5.931008   4.776016   2.487316   0.000000
    35  H    4.776065   5.930745   4.307044   2.476605   0.000000
    36  H    2.462002   5.566694   4.992708   4.307173   2.487106
                   36
    36  H    0.000000
 This structure is nearly, but not quite of a higher symmetry.
 Consider Symm=Loose if the higher symmetry is desired.
 Stoichiometry    C20H16
 Framework group  C1[X(C20H16)]
 Deg. of freedom   102
 Full point group                 C1      NOp   1
 Largest Abelian subgroup         C1      NOp   1
 Largest concise Abelian subgroup C1      NOp   1
                         Standard orientation:                         
 ---------------------------------------------------------------------
 Center     Atomic      Atomic             Coordinates (Angstroms)
 Number     Number       Type             X           Y           Z
 ---------------------------------------------------------------------
      1          6           0       -2.000015   -0.911131   -2.349953
      2          6           0       -2.000025   -2.033472   -1.488906
      3          6           0       -2.000020   -1.865474   -0.130839
      4          6           0       -2.000005   -0.559456    0.429185
      5          6           0       -1.999995    0.559370   -0.429052
      6          6           0       -2.000001    0.357011   -1.835697
      7          6           0       -1.999980    1.865623    0.130785
      8          6           0       -1.999975    2.033621    1.488852
      9          6           0       -1.999985    0.911218    2.349821
     10          6           0       -1.999999   -0.357096    1.835831
     11          1           0       -2.000019   -1.072421   -3.432856
     12          1           0       -2.000036   -3.037669   -1.925102
     13          1           0       -2.000027   -2.729863    0.542646
     14          1           0       -1.999993    1.231594   -2.495952
     15          1           0       -1.999973    2.729808   -0.542793
     16          1           0       -1.999964    3.037708    1.925392
     17          1           0       -1.999981    1.072585    3.432661
     18          1           0       -2.000007   -1.231476    2.496179
     19          6           0        2.000022    2.349935   -0.911159
     20          6           0        2.000011    1.488888   -2.033500
     21          6           0        1.999997    0.130821   -1.865502
     22          6           0        1.999994   -0.429203   -0.559484
     23          6           0        2.000006    0.429034    0.559343
     24          6           0        2.000020    1.835680    0.356983
     25          6           0        2.000003   -0.130803    1.865595
     26          6           0        1.999989   -1.488870    2.033593
     27          6           0        1.999978   -2.349839    0.911190
     28          6           0        1.999980   -1.835848   -0.357124
     29          1           0        2.000033    3.432838   -1.072448
     30          1           0        2.000013    1.925084   -3.037697
     31          1           0        1.999988   -0.542663   -2.729890
     32          1           0        2.000029    2.495934    1.231566
     33          1           0        2.000012    0.542776    2.729780
     34          1           0        1.999987   -1.925409    3.037681
     35          1           0        1.999967   -3.432679    1.072557
     36          1           0        1.999971   -2.496197   -1.231504
 ---------------------------------------------------------------------
 Rotational constants (GHZ):           0.4448122           0.3173331           0.3173331
 Standard basis: 6-31G(d) (6D, 7F)
 There are   332 symmetry adapted cartesian basis functions of A   symmetry.
 There are   332 symmetry adapted basis functions of A   symmetry.
   332 basis functions,   624 primitive gaussians,   332 cartesian basis functions
    68 alpha electrons       68 beta electrons
       nuclear repulsion energy      1415.8628904095 Hartrees.
 NAtoms=   36 NActive=   36 NUniq=   36 SFac= 1.00D+00 NAtFMM=   60 NAOKFM=F Big=F
 Integral buffers will be    131072 words long.
 Raffenetti 2 integral format.
 Two-electron integral symmetry is turned on.
 Nuclear repulsion after empirical dispersion term =     1415.8362870968 Hartrees.
 One-electron integrals computed using PRISM.
 NBasis=   332 RedAO= T EigKep=  2.93D-04  NBF=   332
 NBsUse=   332 1.00D-06 EigRej= -1.00D+00 NBFU=   332
 ExpMin= 1.61D-01 ExpMax= 3.05D+03 ExpMxC= 4.57D+02 IAcc=3 IRadAn=         5 AccDes= 0.00D+00
 Harris functional with IExCor= 4639 and IRadAn=       5 diagonalized for initial guess.
 HarFok:  IExCor= 4639 AccDes= 0.00D+00 IRadAn=         5 IDoV= 1 UseB2=F ITyADJ=14
 ICtDFT=  3500011 ScaDFX=  1.000000  1.000000  1.000000  1.000000
 FoFCou: FMM=F IPFlag=           0 FMFlag=      100000 FMFlg1=           0
         NFxFlg=           0 DoJE=T BraDBF=F KetDBF=T FulRan=T
         wScrn=  0.000000 ICntrl=       500 IOpCl=  0 I1Cent=   200000004 NGrid=           0
         NMat0=    1 NMatS0=      1 NMatT0=    0 NMatD0=    1 NMtDS0=    0 NMtDT0=    0
 Petite list used in FoFCou.
 Requested convergence on RMS density matrix=1.00D-08 within 128 cycles.
 Requested convergence on MAX density matrix=1.00D-06.
 Requested convergence on             energy=1.00D-06.
 No special actions if energy rises.
 Integral accuracy reduced to 1.0D-05 until final iterations.
 Initial convergence to 1.0D-05 achieved.  Increase integral accuracy.
 SCF Done:  E(RwB97XD) =  -771.517666474     A.U. after   13 cycles
            NFock= 13  Conv=0.82D-08     -V/T= 2.0097

 **********************************************************************

            Population analysis using the SCF Density.

 **********************************************************************

 Orbital symmetries:
       Occupied  (A) (A) (A) (A) (A) (A) (A) (A) (A) (A) (A) (A)
                 (A) (A) (A) (A) (A) (A) (A) (A) (A) (A) (A) (A)
                 (A) (A) (A) (A) (A) (A) (A) (A) (A) (A) (A) (A)
                 (A) (A) (A) (A) (A) (A) (A) (A) (A) (A) (A) (A)
                 (A) (A) (A) (A) (A) (A) (A) (A) (A) (A) (A) (A)
                 (A) (A) (A) (A) (A) (A) (A) (A)
       Virtual   (A) (A) (A) (A) (A) (A) (A) (A) (A) (A) (A) (A)
                 (A) (A) (A) (A) (A) (A) (A) (A) (A) (A) (A) (A)
                 (A) (A) (A) (A) (A) (A) (A) (A) (A) (A) (A) (A)
                 (A) (A) (A) (A) (A) (A) (A) (A) (A) (A) (A) (A)
                 (A) (A) (A) (A) (A) (A) (A) (A) (A) (A) (A) (A)
                 (A) (A) (A) (A) (A) (A) (A) (A) (A) (A) (A) (A)
                 (A) (A) (A) (A) (A) (A) (A) (A) (A) (A) (A) (A)
                 (A) (A) (A) (A) (A) (A) (A) (A) (A) (A) (A) (A)
                 (A) (A) (A) (A) (A) (A) (A) (A) (A) (A) (A) (A)
                 (A) (A) (A) (A) (A) (A) (A) (A) (A) (A) (A) (A)
                 (A) (A) (A) (A) (A) (A) (A) (A) (A) (A) (A) (A)
                 (A) (A) (A) (A) (A) (A) (A) (A) (A) (A) (A) (A)
                 (A) (A) (A) (A) (A) (A) (A) (A) (A) (A) (A) (A)
                 (A) (A) (A) (A) (A) (A) (A) (A) (A) (A) (A) (A)
                 (A) (A) (A) (A) (A) (A) (A) (A) (A) (A) (A) (A)
                 (A) (A) (A) (A) (A) (A) (A) (A) (A) (A) (A) (A)
                 (A) (A) (A) (A) (A) (A) (A) (A) (A) (A) (A) (A)
                 (A) (A) (A) (A) (A) (A) (A) (A) (A) (A) (A) (A)
                 (A) (A) (A) (A) (A) (A) (A) (A) (A) (A) (A) (A)
                 (A) (A) (A) (A) (A) (A) (A) (A) (A) (A) (A) (A)
                 (A) (A) (A) (A) (A) (A) (A) (A) (A) (A) (A) (A)
                 (A) (A) (A) (A) (A) (A) (A) (A) (A) (A) (A) (A)
 The electronic state is 1-A.
 Alpha  occ. eigenvalues --  -10.30137 -10.30136 -10.30086 -10.30086 -10.29684
 Alpha  occ. eigenvalues --  -10.29684 -10.29684 -10.29683 -10.29660 -10.29659
 Alpha  occ. eigenvalues --  -10.29657 -10.29657 -10.29609 -10.29609 -10.29608
 Alpha  occ. eigenvalues --  -10.29608 -10.29587 -10.29587 -10.29586 -10.29586
 Alpha  occ. eigenvalues --   -0.96983  -0.96852  -0.91427  -0.91427  -0.86436
 Alpha  occ. eigenvalues --   -0.86436  -0.83157  -0.83153  -0.80912  -0.80807
 Alpha  occ. eigenvalues --   -0.71060  -0.71060  -0.69541  -0.69541  -0.68275
 Alpha  occ. eigenvalues --   -0.68253  -0.59601  -0.59601  -0.58948  -0.58910
 Alpha  occ. eigenvalues --   -0.57450  -0.57440  -0.52660  -0.52660  -0.51885
 Alpha  occ. eigenvalues --   -0.51846  -0.49314  -0.49277  -0.49039  -0.49039
 Alpha  occ. eigenvalues --   -0.48070  -0.47613  -0.47613  -0.46544  -0.44146
 Alpha  occ. eigenvalues --   -0.44146  -0.40730  -0.40729  -0.40619  -0.40619
 Alpha  occ. eigenvalues --   -0.40361  -0.40328  -0.35523  -0.35523  -0.30886
 Alpha  occ. eigenvalues --   -0.30728  -0.28527  -0.27220
 Alpha virt. eigenvalues --    0.03757   0.03757   0.06890   0.06890   0.11328
 Alpha virt. eigenvalues --    0.11506   0.17460   0.17999   0.18831   0.19469
 Alpha virt. eigenvalues --    0.19628   0.19628   0.20777   0.20777   0.25091
 Alpha virt. eigenvalues --    0.25360   0.25731   0.26147   0.26173   0.26173
 Alpha virt. eigenvalues --    0.26888   0.26888   0.29225   0.29845   0.29845
 Alpha virt. eigenvalues --    0.29851   0.33050   0.33050   0.37286   0.37369
 Alpha virt. eigenvalues --    0.39496   0.39811   0.40087   0.40087   0.40620
 Alpha virt. eigenvalues --    0.41333   0.41670   0.41670   0.44710   0.44710
 Alpha virt. eigenvalues --    0.52482   0.55970   0.56224   0.57939   0.57939
 Alpha virt. eigenvalues --    0.59470   0.59470   0.61358   0.61358   0.62500
 Alpha virt. eigenvalues --    0.62505   0.62653   0.62653   0.62743   0.63732
 Alpha virt. eigenvalues --    0.64411   0.66331   0.66559   0.66559   0.67648
 Alpha virt. eigenvalues --    0.68271   0.68446   0.69095   0.69095   0.70726
 Alpha virt. eigenvalues --    0.71272   0.71324   0.71429   0.71429   0.71601
 Alpha virt. eigenvalues --    0.71816   0.71816   0.72278   0.74162   0.74636
 Alpha virt. eigenvalues --    0.74636   0.75801   0.76920   0.77411   0.78478
 Alpha virt. eigenvalues --    0.78478   0.81463   0.81463   0.85867   0.86095
 Alpha virt. eigenvalues --    0.87297   0.92013   0.92361   0.92737   0.92737
 Alpha virt. eigenvalues --    0.93182   0.93182   0.93445   0.93504   0.93505
 Alpha virt. eigenvalues --    0.93739   0.95143   0.95437   0.95437   0.95896
 Alpha virt. eigenvalues --    0.98874   0.99614   0.99614   1.00002   1.02121
 Alpha virt. eigenvalues --    1.03085   1.03085   1.04418   1.04454   1.08143
 Alpha virt. eigenvalues --    1.08538   1.08754   1.09722   1.09722   1.13738
 Alpha virt. eigenvalues --    1.13738   1.14794   1.16522   1.16522   1.18416
 Alpha virt. eigenvalues --    1.20014   1.20014   1.23509   1.26695   1.29374
 Alpha virt. eigenvalues --    1.29374   1.30338   1.30918   1.33006   1.33028
 Alpha virt. eigenvalues --    1.34258   1.34258   1.37493   1.37493   1.40592
 Alpha virt. eigenvalues --    1.41303   1.48264   1.48296   1.49920   1.49920
 Alpha virt. eigenvalues --    1.51845   1.54261   1.54553   1.55390   1.55390
 Alpha virt. eigenvalues --    1.56057   1.57826   1.57836   1.57836   1.58563
 Alpha virt. eigenvalues --    1.58563   1.58835   1.58874   1.59883   1.59913
 Alpha virt. eigenvalues --    1.60348   1.63765   1.63765   1.81053   1.82334
 Alpha virt. eigenvalues --    1.85985   1.85985   1.88050   1.88334   1.94948
 Alpha virt. eigenvalues --    1.94948   1.97338   1.98181   1.98807   2.00821
 Alpha virt. eigenvalues --    2.00821   2.01249   2.02546   2.02546   2.03805
 Alpha virt. eigenvalues --    2.04084   2.04084   2.05330   2.06457   2.06457
 Alpha virt. eigenvalues --    2.08396   2.10183   2.12311   2.12582   2.14774
 Alpha virt. eigenvalues --    2.14774   2.21955   2.21955   2.24688   2.25405
 Alpha virt. eigenvalues --    2.27068   2.28044   2.28679   2.29306   2.29875
 Alpha virt. eigenvalues --    2.29875   2.31241   2.31241   2.37892   2.37892
 Alpha virt. eigenvalues --    2.38234   2.38234   2.38595   2.41217   2.41866
 Alpha virt. eigenvalues --    2.41866   2.42551   2.42690   2.48025   2.48754
 Alpha virt. eigenvalues --    2.51996   2.51996   2.70142   2.70142   2.71162
 Alpha virt. eigenvalues --    2.71162   2.71305   2.71314   2.72274   2.72279
 Alpha virt. eigenvalues --    2.73802   2.74162   2.78071   2.78071   2.79403
 Alpha virt. eigenvalues --    2.82042   2.85289   2.85306   2.88863   2.88863
 Alpha virt. eigenvalues --    2.93266   2.93266   2.95905   2.95905   2.98182
 Alpha virt. eigenvalues --    2.98422   3.04482   3.05017   3.19118   3.19118
 Alpha virt. eigenvalues --    3.46676   3.46676   3.58447   3.58874   4.17630
 Alpha virt. eigenvalues --    4.19511   4.19511   4.21806   4.22497   4.23298
 Alpha virt. eigenvalues --    4.24203   4.24203   4.24578   4.29653   4.37196
 Alpha virt. eigenvalues --    4.37196   4.45792   4.45792   4.49204   4.53219
 Alpha virt. eigenvalues --    4.61959   4.62843   4.91393   4.91393
          Condensed to atoms (all electrons):
               1          2          3          4          5          6
     1  C    4.908287   0.501633  -0.028029  -0.034705  -0.015935   0.544017
     2  C    0.501633   4.908235   0.544032  -0.015917  -0.034710  -0.028038
     3  C   -0.028029   0.544032   5.047909   0.466776  -0.033648  -0.063344
     4  C   -0.034705  -0.015917   0.466776   4.643972   0.548710  -0.033643
     5  C   -0.015935  -0.034710  -0.033648   0.548710   4.644118   0.466793
     6  C    0.544017  -0.028038  -0.063344  -0.033643   0.466793   5.047854
     7  C    0.007595  -0.000675   0.013383  -0.033653   0.466755  -0.083397
     8  C   -0.000377   0.000078  -0.000675  -0.034697  -0.015942   0.007595
     9  C    0.000078  -0.000377   0.007596  -0.015919  -0.034702  -0.000675
    10  C   -0.000676   0.007597  -0.083436   0.466756  -0.033671   0.013380
    11  H    0.365499  -0.036847   0.003384   0.000892   0.002052  -0.031880
    12  H   -0.036854   0.365495  -0.031891   0.002054   0.000892   0.003386
    13  H    0.003628  -0.038753   0.363982  -0.037962   0.003507   0.000426
    14  H   -0.038745   0.003627   0.000427   0.003505  -0.037959   0.363977
    15  H    0.000237   0.000010  -0.000150   0.003506  -0.037959  -0.005554
    16  H    0.000003  -0.000000   0.000009   0.000892   0.002053  -0.000164
    17  H   -0.000000   0.000003  -0.000164   0.002054   0.000892   0.000009
    18  H    0.000010   0.000236  -0.005550  -0.037953   0.003505  -0.000150
    19  C   -0.000002  -0.000001   0.000001  -0.000006  -0.000122   0.000063
    20  C   -0.000094  -0.000002  -0.000000  -0.000006  -0.000122   0.000309
    21  C    0.000310   0.000063  -0.000082  -0.000069  -0.000164   0.001067
    22  C   -0.000122  -0.000122  -0.000164   0.000470   0.000470  -0.000165
    23  C   -0.000006  -0.000006  -0.000069   0.000470   0.000470  -0.000069
    24  C   -0.000000   0.000001   0.000001  -0.000069  -0.000165  -0.000082
    25  C    0.000001  -0.000000  -0.000082  -0.000164  -0.000069   0.000001
    26  C   -0.000001  -0.000002   0.000063  -0.000122  -0.000006   0.000001
    27  C   -0.000002  -0.000094   0.000310  -0.000123  -0.000006  -0.000000
    28  C    0.000063   0.000309   0.001067  -0.000165  -0.000069  -0.000082
    29  H   -0.000000  -0.000000   0.000000   0.000000  -0.000001  -0.000000
    30  H   -0.000004   0.000000  -0.000000   0.000000  -0.000001  -0.000007
    31  H    0.000154   0.000010  -0.000003  -0.000003  -0.000004   0.000038
    32  H    0.000000   0.000000   0.000000  -0.000003  -0.000004  -0.000001
    33  H    0.000000   0.000000  -0.000001  -0.000004  -0.000003   0.000000
    34  H   -0.000000  -0.000000  -0.000000  -0.000001   0.000000   0.000000
    35  H    0.000000  -0.000004  -0.000007  -0.000001   0.000000  -0.000000
    36  H    0.000010   0.000154   0.000038  -0.000004  -0.000003  -0.000003
               7          8          9         10         11         12
     1  C    0.007595  -0.000377   0.000078  -0.000676   0.365499  -0.036854
     2  C   -0.000675   0.000078  -0.000377   0.007597  -0.036847   0.365495
     3  C    0.013383  -0.000675   0.007596  -0.083436   0.003384  -0.031891
     4  C   -0.033653  -0.034697  -0.015919   0.466756   0.000892   0.002054
     5  C    0.466755  -0.015942  -0.034702  -0.033671   0.002052   0.000892
     6  C   -0.083397   0.007595  -0.000675   0.013380  -0.031880   0.003386
     7  C    5.047815   0.544029  -0.028034  -0.063315  -0.000164   0.000009
     8  C    0.544029   4.908245   0.501626  -0.028033   0.000003  -0.000000
     9  C   -0.028034   0.501626   4.908302   0.544011  -0.000000   0.000003
    10  C   -0.063315  -0.028033   0.544011   5.047897   0.000009  -0.000164
    11  H   -0.000164   0.000003  -0.000000   0.000009   0.543097  -0.003656
    12  H    0.000009  -0.000000   0.000003  -0.000164  -0.003656   0.543147
    13  H   -0.000150   0.000010   0.000237  -0.005554  -0.000148  -0.003847
    14  H   -0.005553   0.000237   0.000010  -0.000150  -0.003843  -0.000148
    15  H    0.363991  -0.038752   0.003628   0.000426  -0.000009  -0.000000
    16  H   -0.031885   0.365496  -0.036859   0.003385  -0.000000  -0.000000
    17  H    0.003387  -0.036861   0.365504  -0.031891  -0.000000  -0.000000
    18  H    0.000426   0.003627  -0.038746   0.363991  -0.000000  -0.000009
    19  C    0.000310  -0.000094  -0.000002  -0.000000   0.000000  -0.000000
    20  C    0.000063  -0.000002  -0.000001   0.000001  -0.000004  -0.000000
    21  C   -0.000082  -0.000000   0.000001   0.000001  -0.000007  -0.000000
    22  C   -0.000069  -0.000006  -0.000006  -0.000069  -0.000001  -0.000001
    23  C   -0.000164  -0.000122  -0.000123  -0.000165   0.000000   0.000000
    24  C    0.001067   0.000309   0.000063  -0.000082  -0.000000   0.000000
    25  C   -0.000082   0.000063   0.000310   0.001067   0.000000  -0.000000
    26  C   -0.000000  -0.000002  -0.000094   0.000309  -0.000000   0.000000
    27  C    0.000001  -0.000001  -0.000002   0.000063  -0.000000  -0.000004
    28  C    0.000001   0.000001  -0.000000  -0.000082  -0.000000  -0.000007
    29  H   -0.000007  -0.000004   0.000000  -0.000000   0.000000  -0.000000
    30  H   -0.000000  -0.000000  -0.000000   0.000000  -0.000000   0.000000
    31  H   -0.000001   0.000000   0.000000   0.000000   0.000016  -0.000000
    32  H    0.000037   0.000154   0.000010  -0.000003  -0.000000   0.000000
    33  H   -0.000003   0.000010   0.000154   0.000038   0.000000  -0.000000
    34  H   -0.000000   0.000000  -0.000004  -0.000007  -0.000000   0.000000
    35  H    0.000000  -0.000000  -0.000000  -0.000000   0.000000  -0.000000
    36  H    0.000000   0.000000   0.000000  -0.000001  -0.000000   0.000016
              13         14         15         16         17         18
     1  C    0.003628  -0.038745   0.000237   0.000003  -0.000000   0.000010
     2  C   -0.038753   0.003627   0.000010  -0.000000   0.000003   0.000236
     3  C    0.363982   0.000427  -0.000150   0.000009  -0.000164  -0.005550
     4  C   -0.037962   0.003505   0.003506   0.000892   0.002054  -0.037953
     5  C    0.003507  -0.037959  -0.037959   0.002053   0.000892   0.003505
     6  C    0.000426   0.363977  -0.005554  -0.000164   0.000009  -0.000150
     7  C   -0.000150  -0.005553   0.363991  -0.031885   0.003387   0.000426
     8  C    0.000010   0.000237  -0.038752   0.365496  -0.036861   0.003627
     9  C    0.000237   0.000010   0.003628  -0.036859   0.365504  -0.038746
    10  C   -0.005554  -0.000150   0.000426   0.003385  -0.031891   0.363991
    11  H   -0.000148  -0.003843  -0.000009  -0.000000  -0.000000  -0.000000
    12  H   -0.003847  -0.000148  -0.000000  -0.000000  -0.000000  -0.000009
    13  H    0.545773   0.000015   0.000002  -0.000000  -0.000009   0.005183
    14  H    0.000015   0.545757   0.005185  -0.000009  -0.000000   0.000002
    15  H    0.000002   0.005185   0.545724  -0.003841  -0.000148   0.000015
    16  H   -0.000000  -0.000009  -0.003841   0.543131  -0.003660  -0.000148
    17  H   -0.000009  -0.000000  -0.000148  -0.003660   0.543145  -0.003843
    18  H    0.005183   0.000002   0.000015  -0.000148  -0.003843   0.545707
    19  C    0.000000   0.000010   0.000154  -0.000004  -0.000000   0.000000
    20  C    0.000000   0.000154   0.000010   0.000000  -0.000000   0.000000
    21  C   -0.000001   0.000037  -0.000003  -0.000000   0.000000   0.000000
    22  C   -0.000004  -0.000004  -0.000003   0.000000   0.000000  -0.000003
    23  C   -0.000003  -0.000003  -0.000004  -0.000001  -0.000001  -0.000004
    24  C    0.000000  -0.000003   0.000038  -0.000007  -0.000000  -0.000001
    25  C   -0.000003   0.000000  -0.000001  -0.000000  -0.000007   0.000038
    26  C    0.000010   0.000000   0.000000  -0.000000  -0.000004   0.000154
    27  C    0.000154   0.000000   0.000000  -0.000000   0.000000   0.000010
    28  C    0.000038  -0.000001   0.000000   0.000000  -0.000000  -0.000003
    29  H    0.000000  -0.000000   0.000016  -0.000000   0.000000  -0.000000
    30  H   -0.000000   0.000016  -0.000000   0.000000  -0.000000   0.000000
    31  H   -0.000000  -0.000002  -0.000000  -0.000000   0.000000   0.000000
    32  H    0.000000  -0.000000  -0.000002   0.000016  -0.000000  -0.000000
    33  H   -0.000000   0.000000  -0.000000  -0.000000   0.000016  -0.000002
    34  H   -0.000000   0.000000  -0.000000   0.000000  -0.000000   0.000016
    35  H    0.000016  -0.000000   0.000000  -0.000000   0.000000  -0.000000
    36  H   -0.000002  -0.000000   0.000000   0.000000  -0.000000  -0.000000
              19         20         21         22         23         24
     1  C   -0.000002  -0.000094   0.000310  -0.000122  -0.000006  -0.000000
     2  C   -0.000001  -0.000002   0.000063  -0.000122  -0.000006   0.000001
     3  C    0.000001  -0.000000  -0.000082  -0.000164  -0.000069   0.000001
     4  C   -0.000006  -0.000006  -0.000069   0.000470   0.000470  -0.000069
     5  C   -0.000122  -0.000122  -0.000164   0.000470   0.000470  -0.000165
     6  C    0.000063   0.000309   0.001067  -0.000165  -0.000069  -0.000082
     7  C    0.000310   0.000063  -0.000082  -0.000069  -0.000164   0.001067
     8  C   -0.000094  -0.000002  -0.000000  -0.000006  -0.000122   0.000309
     9  C   -0.000002  -0.000001   0.000001  -0.000006  -0.000123   0.000063
    10  C   -0.000000   0.000001   0.000001  -0.000069  -0.000165  -0.000082
    11  H    0.000000  -0.000004  -0.000007  -0.000001   0.000000  -0.000000
    12  H   -0.000000  -0.000000  -0.000000  -0.000001   0.000000   0.000000
    13  H    0.000000   0.000000  -0.000001  -0.000004  -0.000003   0.000000
    14  H    0.000010   0.000154   0.000037  -0.000004  -0.000003  -0.000003
    15  H    0.000154   0.000010  -0.000003  -0.000003  -0.000004   0.000038
    16  H   -0.000004   0.000000  -0.000000   0.000000  -0.000001  -0.000007
    17  H   -0.000000  -0.000000   0.000000   0.000000  -0.000001  -0.000000
    18  H    0.000000   0.000000   0.000000  -0.000003  -0.000004  -0.000001
    19  C    4.908288   0.501633  -0.028029  -0.034705  -0.015935   0.544017
    20  C    0.501633   4.908234   0.544032  -0.015917  -0.034710  -0.028038
    21  C   -0.028029   0.544032   5.047909   0.466776  -0.033648  -0.063344
    22  C   -0.034705  -0.015917   0.466776   4.643972   0.548710  -0.033643
    23  C   -0.015935  -0.034710  -0.033648   0.548710   4.644118   0.466793
    24  C    0.544017  -0.028038  -0.063344  -0.033643   0.466793   5.047854
    25  C    0.007595  -0.000675   0.013383  -0.033653   0.466755  -0.083397
    26  C   -0.000377   0.000078  -0.000675  -0.034697  -0.015942   0.007595
    27  C    0.000078  -0.000377   0.007596  -0.015919  -0.034702  -0.000675
    28  C   -0.000676   0.007597  -0.083436   0.466756  -0.033671   0.013380
    29  H    0.365499  -0.036847   0.003384   0.000892   0.002052  -0.031880
    30  H   -0.036854   0.365495  -0.031891   0.002054   0.000892   0.003386
    31  H    0.003628  -0.038753   0.363982  -0.037962   0.003507   0.000426
    32  H   -0.038746   0.003627   0.000427   0.003505  -0.037959   0.363977
    33  H    0.000237   0.000010  -0.000150   0.003506  -0.037959  -0.005554
    34  H    0.000003  -0.000000   0.000009   0.000892   0.002053  -0.000164
    35  H   -0.000000   0.000003  -0.000164   0.002054   0.000892   0.000009
    36  H    0.000010   0.000236  -0.005550  -0.037953   0.003505  -0.000150
              25         26         27         28         29         30
     1  C    0.000001  -0.000001  -0.000002   0.000063  -0.000000  -0.000004
     2  C   -0.000000  -0.000002  -0.000094   0.000309  -0.000000   0.000000
     3  C   -0.000082   0.000063   0.000310   0.001067   0.000000  -0.000000
     4  C   -0.000164  -0.000122  -0.000123  -0.000165   0.000000   0.000000
     5  C   -0.000069  -0.000006  -0.000006  -0.000069  -0.000001  -0.000001
     6  C    0.000001   0.000001  -0.000000  -0.000082  -0.000000  -0.000007
     7  C   -0.000082  -0.000000   0.000001   0.000001  -0.000007  -0.000000
     8  C    0.000063  -0.000002  -0.000001   0.000001  -0.000004  -0.000000
     9  C    0.000310  -0.000094  -0.000002  -0.000000   0.000000  -0.000000
    10  C    0.001067   0.000309   0.000063  -0.000082  -0.000000   0.000000
    11  H    0.000000  -0.000000  -0.000000  -0.000000   0.000000  -0.000000
    12  H   -0.000000   0.000000  -0.000004  -0.000007  -0.000000   0.000000
    13  H   -0.000003   0.000010   0.000154   0.000038   0.000000  -0.000000
    14  H    0.000000   0.000000   0.000000  -0.000001  -0.000000   0.000016
    15  H   -0.000001   0.000000   0.000000   0.000000   0.000016  -0.000000
    16  H   -0.000000  -0.000000  -0.000000   0.000000  -0.000000   0.000000
    17  H   -0.000007  -0.000004   0.000000  -0.000000   0.000000  -0.000000
    18  H    0.000038   0.000154   0.000010  -0.000003  -0.000000   0.000000
    19  C    0.007595  -0.000377   0.000078  -0.000676   0.365499  -0.036854
    20  C   -0.000675   0.000078  -0.000377   0.007597  -0.036847   0.365495
    21  C    0.013383  -0.000675   0.007596  -0.083436   0.003384  -0.031891
    22  C   -0.033653  -0.034697  -0.015919   0.466756   0.000892   0.002054
    23  C    0.466755  -0.015942  -0.034702  -0.033671   0.002052   0.000892
    24  C   -0.083397   0.007595  -0.000675   0.013380  -0.031880   0.003386
    25  C    5.047816   0.544029  -0.028034  -0.063315  -0.000164   0.000009
    26  C    0.544029   4.908246   0.501626  -0.028033   0.000003  -0.000000
    27  C   -0.028034   0.501626   4.908300   0.544011  -0.000000   0.000003
    28  C   -0.063315  -0.028033   0.544011   5.047896   0.000009  -0.000164
    29  H   -0.000164   0.000003  -0.000000   0.000009   0.543097  -0.003656
    30  H    0.000009  -0.000000   0.000003  -0.000164  -0.003656   0.543146
    31  H   -0.000150   0.000010   0.000237  -0.005554  -0.000148  -0.003847
    32  H   -0.005553   0.000237   0.000010  -0.000150  -0.003843  -0.000148
    33  H    0.363991  -0.038752   0.003628   0.000426  -0.000009  -0.000000
    34  H   -0.031885   0.365496  -0.036859   0.003385  -0.000000  -0.000000
    35  H    0.003387  -0.036861   0.365504  -0.031891  -0.000000  -0.000000
    36  H    0.000426   0.003627  -0.038746   0.363991  -0.000000  -0.000009
              31         32         33         34         35         36
     1  C    0.000154   0.000000   0.000000  -0.000000   0.000000   0.000010
     2  C    0.000010   0.000000   0.000000  -0.000000  -0.000004   0.000154
     3  C   -0.000003   0.000000  -0.000001  -0.000000  -0.000007   0.000038
     4  C   -0.000003  -0.000003  -0.000004  -0.000001  -0.000001  -0.000004
     5  C   -0.000004  -0.000004  -0.000003   0.000000   0.000000  -0.000003
     6  C    0.000038  -0.000001   0.000000   0.000000  -0.000000  -0.000003
     7  C   -0.000001   0.000037  -0.000003  -0.000000   0.000000   0.000000
     8  C    0.000000   0.000154   0.000010   0.000000  -0.000000   0.000000
     9  C    0.000000   0.000010   0.000154  -0.000004  -0.000000   0.000000
    10  C    0.000000  -0.000003   0.000038  -0.000007  -0.000000  -0.000001
    11  H    0.000016  -0.000000   0.000000  -0.000000   0.000000  -0.000000
    12  H   -0.000000   0.000000  -0.000000   0.000000  -0.000000   0.000016
    13  H   -0.000000   0.000000  -0.000000  -0.000000   0.000016  -0.000002
    14  H   -0.000002  -0.000000   0.000000   0.000000  -0.000000  -0.000000
    15  H   -0.000000  -0.000002  -0.000000  -0.000000   0.000000   0.000000
    16  H   -0.000000   0.000016  -0.000000   0.000000  -0.000000   0.000000
    17  H    0.000000  -0.000000   0.000016  -0.000000   0.000000  -0.000000
    18  H    0.000000  -0.000000  -0.000002   0.000016  -0.000000  -0.000000
    19  C    0.003628  -0.038746   0.000237   0.000003  -0.000000   0.000010
    20  C   -0.038753   0.003627   0.000010  -0.000000   0.000003   0.000236
    21  C    0.363982   0.000427  -0.000150   0.000009  -0.000164  -0.005550
    22  C   -0.037962   0.003505   0.003506   0.000892   0.002054  -0.037953
    23  C    0.003507  -0.037959  -0.037959   0.002053   0.000892   0.003505
    24  C    0.000426   0.363977  -0.005554  -0.000164   0.000009  -0.000150
    25  C   -0.000150  -0.005553   0.363991  -0.031885   0.003387   0.000426
    26  C    0.000010   0.000237  -0.038752   0.365496  -0.036861   0.003627
    27  C    0.000237   0.000010   0.003628  -0.036859   0.365504  -0.038746
    28  C   -0.005554  -0.000150   0.000426   0.003385  -0.031891   0.363991
    29  H   -0.000148  -0.003843  -0.000009  -0.000000  -0.000000  -0.000000
    30  H   -0.003847  -0.000148  -0.000000  -0.000000  -0.000000  -0.000009
    31  H    0.545772   0.000015   0.000002  -0.000000  -0.000009   0.005183
    32  H    0.000015   0.545758   0.005185  -0.000009  -0.000000   0.000002
    33  H    0.000002   0.005185   0.545725  -0.003841  -0.000148   0.000015
    34  H   -0.000000  -0.000009  -0.003841   0.543132  -0.003660  -0.000148
    35  H   -0.000009  -0.000000  -0.000148  -0.003660   0.543145  -0.003843
    36  H    0.005183   0.000002   0.000015  -0.000148  -0.003843   0.545706
 Mulliken charges:
               1
     1  C   -0.175972
     2  C   -0.175935
     3  C   -0.201681
     4  C    0.105131
     5  C    0.105046
     6  C   -0.201661
     7  C   -0.201635
     8  C   -0.175915
     9  C   -0.175989
    10  C   -0.201633
    11  H    0.161606
    12  H    0.161579
    13  H    0.163455
    14  H    0.163460
    15  H    0.163482
    16  H    0.161592
    17  H    0.161578
    18  H    0.163492
    19  C   -0.175973
    20  C   -0.175935
    21  C   -0.201680
    22  C    0.105130
    23  C    0.105046
    24  C   -0.201661
    25  C   -0.201635
    26  C   -0.175916
    27  C   -0.175988
    28  C   -0.201633
    29  H    0.161606
    30  H    0.161579
    31  H    0.163455
    32  H    0.163459
    33  H    0.163482
    34  H    0.161592
    35  H    0.161578
    36  H    0.163493
 Sum of Mulliken charges =  -0.00000
 Mulliken charges with hydrogens summed into heavy atoms:
               1
     1  C   -0.014365
     2  C   -0.014356
     3  C   -0.038226
     4  C    0.105131
     5  C    0.105046
     6  C   -0.038201
     7  C   -0.038153
     8  C   -0.014323
     9  C   -0.014411
    10  C   -0.038141
    19  C   -0.014367
    20  C   -0.014355
    21  C   -0.038225
    22  C    0.105130
    23  C    0.105046
    24  C   -0.038202
    25  C   -0.038154
    26  C   -0.014324
    27  C   -0.014410
    28  C   -0.038140
 Electronic spatial extent (au):  <R**2>=           4507.9989
 Charge=             -0.0000 electrons
 Dipole moment (field-independent basis, Debye):
    X=              0.0000    Y=              0.0000    Z=              0.0003  Tot=              0.0003
 Quadrupole moment (field-independent basis, Debye-Ang):
   XX=           -125.7410   YY=           -100.9446   ZZ=           -100.9446
   XY=             -0.0003   XZ=              0.0001   YZ=              0.0000
 Traceless Quadrupole moment (field-independent basis, Debye-Ang):
   XX=            -16.5309   YY=              8.2655   ZZ=              8.2655
   XY=             -0.0003   XZ=              0.0001   YZ=              0.0000
 Octapole moment (field-independent basis, Debye-Ang**2):
  XXX=              0.0000  YYY=              0.0018  ZZZ=              0.0004  XYY=             -0.2483
  XXY=             -0.0001  XXZ=              0.0011  XZZ=              0.2483  YZZ=             -0.0018
  YYZ=              0.0021  XYZ=              0.9267
 Hexadecapole moment (field-independent basis, Debye-Ang**3):
 XXXX=          -3138.0247 YYYY=          -1542.6671 ZZZZ=          -1542.6671 XXXY=              0.0083
 XXXZ=              0.0012 YYYX=              0.0065 YYYZ=             -4.5560 ZZZX=              0.0056
 ZZZY=              4.5560 XXYY=           -741.9009 XXZZ=           -741.9009 YYZZ=           -503.7109
 XXYZ=             -0.0000 YYXZ=             -0.0030 ZZXY=             -0.0015
 N-N= 1.415836287097D+03 E-N=-4.618432957099D+03  KE= 7.640794028022D+02
 1\1\GINC-PADAWAN-X570S-UD\SP\RwB97XD\6-31G(d)\C20H16\PADAWAN\30-May-20
 22\0\\#n wB97xd/6-31G(d) SP\\Title\\0,1\C,0,2.4044,0.7559,0.\C,0,2.432
 8,-0.6584,0.\C,0,1.2672,-1.3753,0.\C,0,0.0142,-0.705,0.\C,0,-0.0142,0.
 7048,0.\C,0,1.2108,1.4252,0.\C,0,-1.2672,1.3754,0.\C,0,-2.4328,0.6585,
 0.\C,0,-2.4043,-0.7558,0.\C,0,-1.2108,-1.4254,0.\H,0,3.3509,1.3062,0.\
 H,0,3.4006,-1.1703,0.\H,0,1.281,-2.471,0.\H,0,1.1803,2.5206,0.\H,0,-1.
 2808,2.471,0.\H,0,-3.4008,1.1701,0.\H,0,-3.3508,-1.306,0.\H,0,-1.1805,
 -2.5207,0.\C,0,-0.7559,2.40438,4.\C,0,0.6584,2.43278,4.\C,0,1.3753,1.2
 6718,4.\C,0,0.705,0.01418,4.\C,0,-0.7048,-0.01422,4.\C,0,-1.4252,1.210
 78,4.\C,0,-1.3754,-1.26722,4.\C,0,-0.6585,-2.43282,4.\C,0,0.7558,-2.40
 432,4.\C,0,1.4254,-1.21082,4.\H,0,-1.3062,3.35088,4.\H,0,1.1703,3.4005
 8,4.\H,0,2.471,1.28098,4.\H,0,-2.5206,1.18028,4.\H,0,-2.471,-1.28082,4
 .\H,0,-1.1701,-3.40082,4.\H,0,1.306,-3.35082,4.\H,0,2.5207,-1.18052,4.
 \\Version=EM64L-G16RevB.01\State=1-A\HF=-771.5176665\RMSD=8.195e-09\Di
 pole=-0.0000866,-0.0000516,0.\Quadrupole=6.1451689,6.1451689,-12.29033
 78,0.,0.0002306,-0.0003905\PG=C01 [X(C20H16)]\\@


 PATIENCE IS THE ABILITY TO IDLE YOUR MOTOR WHEN
 YOU FEEL LIKE STRIPPING YOUR GEARS.
 Job cpu time:       0 days  0 hours 13 minutes  6.0 seconds.
 Elapsed time:       0 days  0 hours  0 minutes 26.3 seconds.
 File lengths (MBytes):  RWF=     64 Int=      0 D2E=      0 Chk=      8 Scr=      1
 Normal termination of Gaussian 16 at Mon May 30 06:39:43 2022.
