 Entering Gaussian System, Link 0=g16
 Input=benz5.com
 Output=benz5.log
 Initial command:
 /usr/local/g16/l1.exe "/home/padawan/ingrid/Gau-12576.inp" -scrdir="/home/padawan/ingrid/"
 Entering Link 1 = /usr/local/g16/l1.exe PID=     12578.
  
 Copyright (c) 1988,1990,1992,1993,1995,1998,2003,2009,2016,
            Gaussian, Inc.  All Rights Reserved.
  
 This is part of the Gaussian(R) 16 program.  It is based on
 the Gaussian(R) 09 system (copyright 2009, Gaussian, Inc.),
 the Gaussian(R) 03 system (copyright 2003, Gaussian, Inc.),
 the Gaussian(R) 98 system (copyright 1998, Gaussian, Inc.),
 the Gaussian(R) 94 system (copyright 1995, Gaussian, Inc.),
 the Gaussian 92(TM) system (copyright 1992, Gaussian, Inc.),
 the Gaussian 90(TM) system (copyright 1990, Gaussian, Inc.),
 the Gaussian 88(TM) system (copyright 1988, Gaussian, Inc.),
 the Gaussian 86(TM) system (copyright 1986, Carnegie Mellon
 University), and the Gaussian 82(TM) system (copyright 1983,
 Carnegie Mellon University). Gaussian is a federally registered
 trademark of Gaussian, Inc.
  
 This software contains proprietary and confidential information,
 including trade secrets, belonging to Gaussian, Inc.
  
 This software is provided under written license and may be
 used, copied, transmitted, or stored only in accord with that
 written license.
  
 The following legend is applicable only to US Government
 contracts under FAR:
  
                    RESTRICTED RIGHTS LEGEND
  
 Use, reproduction and disclosure by the US Government is
 subject to restrictions as set forth in subparagraphs (a)
 and (c) of the Commercial Computer Software - Restricted
 Rights clause in FAR 52.227-19.
  
 Gaussian, Inc.
 340 Quinnipiac St., Bldg. 40, Wallingford CT 06492
  
  
 ---------------------------------------------------------------
 Warning -- This program may not be used in any manner that
 competes with the business of Gaussian, Inc. or will provide
 assistance to any competitor of Gaussian, Inc.  The licensee
 of this program is prohibited from giving any competitor of
 Gaussian, Inc. access to this program.  By using this program,
 the user acknowledges that Gaussian, Inc. is engaged in the
 business of creating and licensing software in the field of
 computational chemistry and represents and warrants to the
 licensee that it is not a competitor of Gaussian, Inc. and that
 it will not use this program in any manner prohibited above.
 ---------------------------------------------------------------
  

 Cite this work as:
 Gaussian 16, Revision A.03,
 M. J. Frisch, G. W. Trucks, H. B. Schlegel, G. E. Scuseria, 
 M. A. Robb, J. R. Cheeseman, G. Scalmani, V. Barone, 
 G. A. Petersson, H. Nakatsuji, X. Li, M. Caricato, A. V. Marenich, 
 J. Bloino, B. G. Janesko, R. Gomperts, B. Mennucci, H. P. Hratchian, 
 J. V. Ortiz, A. F. Izmaylov, J. L. Sonnenberg, D. Williams-Young, 
 F. Ding, F. Lipparini, F. Egidi, J. Goings, B. Peng, A. Petrone, 
 T. Henderson, D. Ranasinghe, V. G. Zakrzewski, J. Gao, N. Rega, 
 G. Zheng, W. Liang, M. Hada, M. Ehara, K. Toyota, R. Fukuda, 
 J. Hasegawa, M. Ishida, T. Nakajima, Y. Honda, O. Kitao, H. Nakai, 
 T. Vreven, K. Throssell, J. A. Montgomery, Jr., J. E. Peralta, 
 F. Ogliaro, M. J. Bearpark, J. J. Heyd, E. N. Brothers, K. N. Kudin, 
 V. N. Staroverov, T. A. Keith, R. Kobayashi, J. Normand, 
 K. Raghavachari, A. P. Rendell, J. C. Burant, S. S. Iyengar, 
 J. Tomasi, M. Cossi, J. M. Millam, M. Klene, C. Adamo, R. Cammi, 
 J. W. Ochterski, R. L. Martin, K. Morokuma, O. Farkas, 
 J. B. Foresman, and D. J. Fox, Gaussian, Inc., Wallingford CT, 2016.
 
 ******************************************
 Gaussian 16:  ES64L-G16RevA.03 25-Dec-2016
                23-Mar-2022 
 ******************************************
 %nproc=30
 Will use up to   30 processors via shared memory.
 %mem=28GB
 %Chk=benz5.chk
 ---------------------
 #n wB97xd/6-31G(d) SP
 ---------------------
 1/38=1,172=1/1;
 2/12=2,17=6,18=5,40=1/2;
 3/5=1,6=6,7=1,11=2,25=1,30=1,74=-58/1,2,3;
 4//1;
 5/5=2,38=5/2;
 6/7=2,8=2,9=2,10=2,28=1/1;
 99/5=1,9=1/99;
 -----
 Title
 -----
 Symbolic Z-matrix:
 Charge =  0 Multiplicity = 1
 C                    -1.2211   -0.705     0. 
 H                    -2.05248  -1.185     0. 
 C                     0.       -1.41      0. 
 H                     0.       -2.37      0. 
 C                     1.2211   -0.705     0. 
 H                     2.05248  -1.185     0. 
 C                    -1.2211    0.705     0. 
 H                    -2.05248   1.185     0. 
 C                     0.        1.41      0. 
 H                     0.        2.37      0. 
 C                     1.2211    0.705     0. 
 H                     2.05248   1.185     0. 
 C                     0.       -1.41      4. 
 H                     0.       -2.37      4. 
 C                     1.2211   -0.705     4. 
 H                     2.05248  -1.185     4. 
 C                     1.2211    0.705     4. 
 H                     2.05248   1.185     4. 
 C                    -1.2211   -0.705     4. 
 H                    -2.05248  -1.185     4. 
 C                    -1.2211    0.705     4. 
 H                    -2.05248   1.185     4. 
 C                     0.        1.41      4. 
 H                     0.        2.37      4. 
 
                          Input orientation:                          
 ---------------------------------------------------------------------
 Center     Atomic      Atomic             Coordinates (Angstroms)
 Number     Number       Type             X           Y           Z
 ---------------------------------------------------------------------
      1          6           0       -1.221100   -0.705000    0.000000
      2          1           0       -2.052480   -1.185000    0.000000
      3          6           0        0.000000   -1.410000    0.000000
      4          1           0        0.000000   -2.370000    0.000000
      5          6           0        1.221100   -0.705000    0.000000
      6          1           0        2.052480   -1.185000    0.000000
      7          6           0       -1.221100    0.705000    0.000000
      8          1           0       -2.052480    1.185000    0.000000
      9          6           0        0.000000    1.410000    0.000000
     10          1           0        0.000000    2.370000    0.000000
     11          6           0        1.221100    0.705000    0.000000
     12          1           0        2.052480    1.185000    0.000000
     13          6           0        0.000000   -1.410000    4.000000
     14          1           0        0.000000   -2.370000    4.000000
     15          6           0        1.221100   -0.705000    4.000000
     16          1           0        2.052480   -1.185000    4.000000
     17          6           0        1.221100    0.705000    4.000000
     18          1           0        2.052480    1.185000    4.000000
     19          6           0       -1.221100   -0.705000    4.000000
     20          1           0       -2.052480   -1.185000    4.000000
     21          6           0       -1.221100    0.705000    4.000000
     22          1           0       -2.052480    1.185000    4.000000
     23          6           0        0.000000    1.410000    4.000000
     24          1           0        0.000000    2.370000    4.000000
 ---------------------------------------------------------------------
                    Distance matrix (angstroms):
                    1          2          3          4          5
     1  C    0.000000
     2  H    0.959996   0.000000
     3  C    1.410004   2.064776   0.000000
     4  H    2.064778   2.370000   0.960000   0.000000
     5  C    2.442200   3.308584   1.410004   2.064778   0.000000
     6  H    3.308584   4.104960   2.064776   2.370000   0.959996
     7  C    1.410000   2.064774   2.442194   3.308581   2.820007
     8  H    2.064774   2.370000   3.308580   4.104960   3.780003
     9  C    2.442194   3.308580   2.820000   3.780000   2.442194
    10  H    3.308581   4.104960   3.780000   4.740000   3.308581
    11  C    2.820007   3.780003   2.442194   3.308581   1.410000
    12  H    3.780003   4.740000   3.308580   4.104960   2.064774
    13  C    4.241239   4.501477   4.000000   4.113587   4.241239
    14  H    4.501479   4.649398   4.113587   4.000000   4.501479
    15  C    4.686613   5.191024   4.241239   4.501479   4.000000
    16  H    5.191024   5.731553   4.501477   4.649398   4.113586
    17  C    4.894123   5.503492   4.686610   5.191022   4.241238
    18  H    5.503492   6.202225   5.191021   5.731553   4.501477
    19  C    4.000000   4.113586   4.241239   4.501479   4.686613
    20  H    4.113586   4.000000   4.501477   4.649398   5.191024
    21  C    4.241238   4.501477   4.686610   5.191022   4.894123
    22  H    4.501477   4.649398   5.191021   5.731553   5.503492
    23  C    4.686610   5.191021   4.894119   5.503490   4.686610
    24  H    5.191022   5.731553   5.503490   6.202225   5.191022
                    6          7          8          9         10
     6  H    0.000000
     7  C    3.780003   0.000000
     8  H    4.740000   0.959996   0.000000
     9  C    3.308580   1.410004   2.064776   0.000000
    10  H    4.104960   2.064778   2.370000   0.960000   0.000000
    11  C    2.064774   2.442200   3.308584   1.410004   2.064778
    12  H    2.370000   3.308584   4.104960   2.064776   2.370000
    13  C    4.501477   4.686610   5.191021   4.894119   5.503490
    14  H    4.649398   5.191022   5.731553   5.503490   6.202225
    15  C    4.113586   4.894123   5.503492   4.686610   5.191022
    16  H    4.000000   5.503492   6.202225   5.191021   5.731553
    17  C    4.501477   4.686613   5.191024   4.241239   4.501479
    18  H    4.649398   5.191024   5.731553   4.501477   4.649398
    19  C    5.191024   4.241238   4.501477   4.686610   5.191022
    20  H    5.731553   4.501477   4.649398   5.191021   5.731553
    21  C    5.503492   4.000000   4.113586   4.241239   4.501479
    22  H    6.202225   4.113586   4.000000   4.501477   4.649398
    23  C    5.191021   4.241239   4.501477   4.000000   4.113587
    24  H    5.731553   4.501479   4.649398   4.113587   4.000000
                   11         12         13         14         15
    11  C    0.000000
    12  H    0.959996   0.000000
    13  C    4.686610   5.191021   0.000000
    14  H    5.191022   5.731553   0.960000   0.000000
    15  C    4.241238   4.501477   1.410004   2.064778   0.000000
    16  H    4.501477   4.649398   2.064776   2.370000   0.959996
    17  C    4.000000   4.113586   2.442194   3.308581   1.410000
    18  H    4.113586   4.000000   3.308580   4.104960   2.064774
    19  C    4.894123   5.503492   1.410004   2.064778   2.442200
    20  H    5.503492   6.202225   2.064776   2.370000   3.308584
    21  C    4.686613   5.191024   2.442194   3.308581   2.820007
    22  H    5.191024   5.731553   3.308580   4.104960   3.780003
    23  C    4.241239   4.501477   2.820000   3.780000   2.442194
    24  H    4.501479   4.649398   3.780000   4.740000   3.308581
                   16         17         18         19         20
    16  H    0.000000
    17  C    2.064774   0.000000
    18  H    2.370000   0.959996   0.000000
    19  C    3.308584   2.820007   3.780003   0.000000
    20  H    4.104960   3.780003   4.740000   0.959996   0.000000
    21  C    3.780003   2.442200   3.308584   1.410000   2.064774
    22  H    4.740000   3.308584   4.104960   2.064774   2.370000
    23  C    3.308580   1.410004   2.064776   2.442194   3.308580
    24  H    4.104960   2.064778   2.370000   3.308581   4.104960
                   21         22         23         24
    21  C    0.000000
    22  H    0.959996   0.000000
    23  C    1.410004   2.064776   0.000000
    24  H    2.064778   2.370000   0.960000   0.000000
 Stoichiometry    C12H12
 Framework group  D2H[SG(C4H4),X(C8H8)]
 Deg. of freedom    10
 Full point group                 D2H     NOp   8
 Largest Abelian subgroup         D2H     NOp   8
 Largest concise Abelian subgroup D2H     NOp   8
                         Standard orientation:                         
 ---------------------------------------------------------------------
 Center     Atomic      Atomic             Coordinates (Angstroms)
 Number     Number       Type             X           Y           Z
 ---------------------------------------------------------------------
      1          6           0       -1.221100    0.705000    2.000000
      2          1           0       -2.052480    1.185000    2.000000
      3          6           0        0.000000    1.410000    2.000000
      4          1           0        0.000000    2.370000    2.000000
      5          6           0        1.221100    0.705000    2.000000
      6          1           0        2.052480    1.185000    2.000000
      7          6           0       -1.221100   -0.705000    2.000000
      8          1           0       -2.052480   -1.185000    2.000000
      9          6           0       -0.000000   -1.410000    2.000000
     10          1           0       -0.000000   -2.370000    2.000000
     11          6           0        1.221100   -0.705000    2.000000
     12          1           0        2.052480   -1.185000    2.000000
     13          6           0        0.000000    1.410000   -2.000000
     14          1           0        0.000000    2.370000   -2.000000
     15          6           0        1.221100    0.705000   -2.000000
     16          1           0        2.052480    1.185000   -2.000000
     17          6           0        1.221100   -0.705000   -2.000000
     18          1           0        2.052480   -1.185000   -2.000000
     19          6           0       -1.221100    0.705000   -2.000000
     20          1           0       -2.052480    1.185000   -2.000000
     21          6           0       -1.221100   -0.705000   -2.000000
     22          1           0       -2.052480   -1.185000   -2.000000
     23          6           0       -0.000000   -1.410000   -2.000000
     24          1           0       -0.000000   -2.370000   -2.000000
 ---------------------------------------------------------------------
 Rotational constants (GHZ):           1.4267473           0.6305541           0.6305534
 Standard basis: 6-31G(d) (6D, 7F)
 There are    30 symmetry adapted cartesian basis functions of AG  symmetry.
 There are    21 symmetry adapted cartesian basis functions of B1G symmetry.
 There are    21 symmetry adapted cartesian basis functions of B2G symmetry.
 There are    30 symmetry adapted cartesian basis functions of B3G symmetry.
 There are    21 symmetry adapted cartesian basis functions of AU  symmetry.
 There are    30 symmetry adapted cartesian basis functions of B1U symmetry.
 There are    30 symmetry adapted cartesian basis functions of B2U symmetry.
 There are    21 symmetry adapted cartesian basis functions of B3U symmetry.
 There are    30 symmetry adapted basis functions of AG  symmetry.
 There are    21 symmetry adapted basis functions of B1G symmetry.
 There are    21 symmetry adapted basis functions of B2G symmetry.
 There are    30 symmetry adapted basis functions of B3G symmetry.
 There are    21 symmetry adapted basis functions of AU  symmetry.
 There are    30 symmetry adapted basis functions of B1U symmetry.
 There are    30 symmetry adapted basis functions of B2U symmetry.
 There are    21 symmetry adapted basis functions of B3U symmetry.
   204 basis functions,   384 primitive gaussians,   204 cartesian basis functions
    42 alpha electrons       42 beta electrons
       nuclear repulsion energy       617.0518975810 Hartrees.
 NAtoms=   24 NActive=   24 NUniq=    4 SFac= 4.00D+00 NAtFMM=   60 NAOKFM=F Big=F
 Integral buffers will be    131072 words long.
 Raffenetti 2 integral format.
 Two-electron integral symmetry is turned on.
 Nuclear repulsion after empirical dispersion term =      617.0384998782 Hartrees.
 One-electron integrals computed using PRISM.
 NBasis=   204 RedAO= T EigKep=  4.98D-04  NBF=    30    21    21    30    21    30    30    21
 NBsUse=   204 1.00D-06 EigRej= -1.00D+00 NBFU=    30    21    21    30    21    30    30    21
 ExpMin= 1.61D-01 ExpMax= 3.05D+03 ExpMxC= 4.57D+02 IAcc=3 IRadAn=         5 AccDes= 0.00D+00
 Harris functional with IExCor= 4639 and IRadAn=       5 diagonalized for initial guess.
 HarFok:  IExCor= 4639 AccDes= 0.00D+00 IRadAn=         5 IDoV= 1 UseB2=F ITyADJ=14
 ICtDFT=  3500011 ScaDFX=  1.000000  1.000000  1.000000  1.000000
 FoFCou: FMM=F IPFlag=           0 FMFlag=      100000 FMFlg1=           0
         NFxFlg=           0 DoJE=T BraDBF=F KetDBF=T FulRan=T
         wScrn=  0.000000 ICntrl=       500 IOpCl=  0 I1Cent=   200000004 NGrid=           0
         NMat0=    1 NMatS0=      1 NMatT0=    0 NMatD0=    1 NMtDS0=    0 NMtDT0=    0
 Petite list used in FoFCou.
 Initial guess orbital symmetries:
       Occupied  (B1U) (AG) (B2G) (B3U) (B3G) (B2U) (AU) (B1U)
                 (B1G) (AG) (B3G) (B2U) (AG) (B1U) (B3U) (B2U)
                 (B2G) (B3G) (B1G) (AG) (AU) (B1U) (AG) (B1U) (B2U)
                 (B3G) (B3U) (B2G) (B2U) (B3U) (B3G) (B2G) (AG)
                 (AG) (B1G) (B1U) (AU) (B1U) (B3U) (B2U) (B2G)
                 (B3G)
       Virtual   (B1G) (AG) (AU) (B1U) (B2U) (AG) (B3G) (B1U) (B2U)
                 (B3U) (B3G) (B2G) (B1G) (AG) (B1U) (AU) (B2U)
                 (B3G) (B2U) (B3U) (B3G) (B2G) (B1G) (AG) (B1U)
                 (AU) (AG) (B3U) (B2G) (AG) (B1U) (B3U) (B2U) (B1G)
                 (AU) (B2U) (B3G) (B1U) (AG) (B1G) (AG) (B1U) (AU)
                 (B2G) (B3G) (B3U) (B2U) (B1G) (AG) (B1U) (B2U)
                 (B2G) (B3G) (AU) (B1U) (B3G) (B2U) (B3G) (B3U)
                 (B2U) (B1G) (AG) (B1U) (AU) (B2G) (B3G) (B1G)
                 (AU) (B2U) (B3U) (B3G) (B2G) (AG) (B1G) (AG) (B1U)
                 (B2U) (B3U) (AU) (B1U) (B3G) (B2G) (B2U) (B3U)
                 (B2G) (B3G) (AG) (B1U) (B1G) (AG) (AU) (B1U) (B1G)
                 (AG) (B3U) (B2U) (B2G) (B3G) (AU) (B1U) (B3U)
                 (AG) (B2G) (B1U) (B2U) (AG) (B1U) (B1G) (AG) (AU)
                 (B1U) (B3G) (B2U) (B3U) (AG) (B1G) (B2U) (B3U)
                 (B3G) (B2G) (B1U) (AU) (B3G) (B2G) (B2U) (B3U)
                 (B2U) (B2G) (B3G) (B3G) (B1G) (AG) (AU) (B1U)
                 (B1G) (AU) (B2U) (B3U) (B3G) (B2G) (AG) (B1G)
                 (B1U) (AU) (B2U) (B3G) (B1G) (AU) (B2U) (B3G)
                 (AG) (B3U) (B2U) (B1U) (B3G) (B2G) (B1G) (AG)
                 (AU) (B1U) (B2U) (B3G)
 The electronic state of the initial guess is 1-AG.
 Keep R1 ints in memory in symmetry-blocked form, NReq=492053055.
 Requested convergence on RMS density matrix=1.00D-08 within 128 cycles.
 Requested convergence on MAX density matrix=1.00D-06.
 Requested convergence on             energy=1.00D-06.
 No special actions if energy rises.
 Integral accuracy reduced to 1.0D-05 until final iterations.
 Initial convergence to 1.0D-05 achieved.  Increase integral accuracy.
 SCF Done:  E(RwB97XD) =  -464.168521224     A.U. after   11 cycles
            NFock= 11  Conv=0.35D-08     -V/T= 2.0050

 **********************************************************************

            Population analysis using the SCF density.

 **********************************************************************

 Orbital symmetries:
       Occupied  (B1U) (AG) (B3G) (B2G) (B2U) (B3U) (B1U) (AU)
                 (AG) (B1G) (B3G) (B2U) (AG) (B1U) (B3U) (B2U)
                 (B2G) (B3G) (B1G) (AG) (AU) (B1U) (AG) (B1U) (B2U)
                 (B3G) (B3U) (B2G) (B3U) (B2U) (B2G) (B3G) (AG)
                 (B1U) (AG) (B1G) (B1U) (AU) (B3U) (B2U) (B2G)
                 (B3G)
       Virtual   (AG) (B1G) (B1U) (AU) (AG) (B1U) (B2U) (B3G) (B2U)
                 (B3U) (B3G) (B2G) (AG) (B1G) (B1U) (AU) (B2U)
                 (B3G) (B3U) (B2U) (AG) (B1G) (B2G) (B3G) (B1U)
                 (AU) (AG) (B3U) (B2G) (AG) (B3U) (B2U) (B2U) (B1U)
                 (B1G) (AU) (B3G) (B1U) (AG) (AG) (B1G) (B1U) (AU)
                 (B3G) (B2G) (B2U) (B3U) (AG) (B1G) (B1U) (B2U)
                 (B2G) (B3G) (AU) (B1U) (B3G) (B2U) (B3G) (B3U)
                 (B2U) (AG) (B1G) (B2G) (B3G) (B1U) (AU) (B1G)
                 (AU) (B2U) (B3U) (B3G) (B2G) (AG) (B1G) (AG) (B1U)
                 (AU) (B1U) (B3U) (B2U) (B3G) (B2G) (B2U) (B3U)
                 (B2G) (B3G) (AG) (B1U) (B1G) (AG) (B1G) (AG) (AU)
                 (B1U) (B3U) (B2U) (B2G) (B3G) (AU) (B1U) (AG)
                 (B3U) (B1U) (B2G) (B2U) (AG) (B3G) (B1U) (AG)
                 (B1G) (B1U) (AU) (B3U) (B2U) (AG) (B1G) (B3G)
                 (B2G) (B1U) (AU) (B2U) (B3U) (B3G) (B2G) (B2U)
                 (B3U) (B2U) (B2G) (B3G) (B3G) (B1G) (AG) (AU)
                 (B1U) (AU) (B1G) (B3U) (B2U) (B3G) (B2G) (B2U)
                 (AG) (B1G) (B1U) (AU) (B3G) (B1G) (AU) (B2U) (B3G)
                 (AG) (B3U) (B2U) (B1U) (B2G) (B3G) (B1G) (AG)
                 (AU) (B1U) (B2U) (B3G)
 The electronic state is 1-AG.
 Alpha  occ. eigenvalues --  -10.27984 -10.27984 -10.27960 -10.27960 -10.27959
 Alpha  occ. eigenvalues --  -10.27959 -10.27908 -10.27907 -10.27907 -10.27907
 Alpha  occ. eigenvalues --  -10.27883 -10.27883  -0.93687  -0.93550  -0.84025
 Alpha  occ. eigenvalues --   -0.84025  -0.83908  -0.83908  -0.70425  -0.70424
 Alpha  occ. eigenvalues --   -0.70329  -0.70329  -0.62390  -0.62300  -0.58398
 Alpha  occ. eigenvalues --   -0.58314  -0.51123  -0.51078  -0.50947  -0.50947
 Alpha  occ. eigenvalues --   -0.50881  -0.50881  -0.44236  -0.42570  -0.42470
 Alpha  occ. eigenvalues --   -0.42470  -0.42423  -0.42423  -0.31796  -0.31796
 Alpha  occ. eigenvalues --   -0.30319  -0.30319
 Alpha virt. eigenvalues --    0.07114   0.07115   0.08654   0.08654   0.21755
 Alpha virt. eigenvalues --    0.22856   0.24124   0.25490   0.26343   0.26343
 Alpha virt. eigenvalues --    0.27659   0.27659   0.28534   0.28534   0.29621
 Alpha virt. eigenvalues --    0.29621   0.31160   0.32443   0.39466   0.39466
 Alpha virt. eigenvalues --    0.39479   0.39479   0.39860   0.39860   0.40308
 Alpha virt. eigenvalues --    0.40309   0.54783   0.56409   0.58222   0.61907
 Alpha virt. eigenvalues --    0.62611   0.62611   0.63736   0.63893   0.64311
 Alpha virt. eigenvalues --    0.64636   0.64758   0.65428   0.67147   0.68018
 Alpha virt. eigenvalues --    0.68018   0.70719   0.70719   0.71681   0.71681
 Alpha virt. eigenvalues --    0.72498   0.72498   0.73385   0.73386   0.78116
 Alpha virt. eigenvalues --    0.80693   0.81566   0.81566   0.82901   0.82901
 Alpha virt. eigenvalues --    0.89627   0.98388   0.99646   1.00532   1.00533
 Alpha virt. eigenvalues --    1.03615   1.03615   1.04519   1.04519   1.04772
 Alpha virt. eigenvalues --    1.04773   1.05893   1.06827   1.06982   1.06982
 Alpha virt. eigenvalues --    1.08782   1.08782   1.12625   1.12625   1.13735
 Alpha virt. eigenvalues --    1.15923   1.20129   1.20130   1.21070   1.21070
 Alpha virt. eigenvalues --    1.25532   1.25533   1.29724   1.35509   1.35509
 Alpha virt. eigenvalues --    1.36028   1.47842   1.47911   1.56953   1.56954
 Alpha virt. eigenvalues --    1.57154   1.57154   1.57387   1.57387   1.59221
 Alpha virt. eigenvalues --    1.59221   1.59440   1.59440   1.63404   1.63404
 Alpha virt. eigenvalues --    1.84798   1.86137   1.86573   1.87423   2.03206
 Alpha virt. eigenvalues --    2.10857   2.11905   2.12627   2.14633   2.14634
 Alpha virt. eigenvalues --    2.16140   2.16140   2.19301   2.19301   2.21449
 Alpha virt. eigenvalues --    2.21449   2.23265   2.23265   2.24469   2.24470
 Alpha virt. eigenvalues --    2.24477   2.24477   2.27211   2.27212   2.37200
 Alpha virt. eigenvalues --    2.38610   2.38611   2.39582   2.39582   2.40263
 Alpha virt. eigenvalues --    2.64728   2.64728   2.69753   2.69753   2.72360
 Alpha virt. eigenvalues --    2.72360   2.79319   2.79319   2.80087   2.80087
 Alpha virt. eigenvalues --    2.86042   2.87716   2.87716   2.88404   2.88404
 Alpha virt. eigenvalues --    2.96668   3.08617   3.09171   3.57650   3.59732
 Alpha virt. eigenvalues --    4.18741   4.22074   4.22074   4.24140   4.29289
 Alpha virt. eigenvalues --    4.29289   4.44277   4.44277   4.49540   4.49541
 Alpha virt. eigenvalues --    4.76913   4.83810
          Condensed to atoms (all electrons):
               1          2          3          4          5          6
     1  C    4.847536   0.385662   0.549906  -0.048555  -0.028741   0.005268
     2  H    0.385662   0.561705  -0.048555  -0.006270   0.005268  -0.000215
     3  C    0.549906  -0.048555   4.847552   0.385664   0.549906  -0.048555
     4  H   -0.048555  -0.006270   0.385664   0.561696  -0.048555  -0.006270
     5  C   -0.028741   0.005268   0.549906  -0.048555   4.847536   0.385662
     6  H    0.005268  -0.000215  -0.048555  -0.006270   0.385662   0.561705
     7  C    0.549900  -0.048557  -0.028743   0.005268  -0.038322   0.000468
     8  H   -0.048557  -0.006269   0.005268  -0.000215   0.000468   0.000020
     9  C   -0.028743   0.005268  -0.038322   0.000468  -0.028743   0.005268
    10  H    0.005268  -0.000215   0.000468   0.000020   0.005268  -0.000215
    11  C   -0.038322   0.000468  -0.028743   0.005268   0.549900  -0.048557
    12  H    0.000468   0.000020   0.005268  -0.000215  -0.048557  -0.006269
    13  C    0.000109   0.000000   0.000415   0.000020   0.000109   0.000000
    14  H    0.000000  -0.000000   0.000020   0.000018   0.000000  -0.000000
    15  C   -0.000031  -0.000001   0.000109   0.000000   0.000415   0.000020
    16  H   -0.000001  -0.000000   0.000000  -0.000000   0.000020   0.000018
    17  C   -0.000033  -0.000000  -0.000031  -0.000001   0.000110   0.000000
    18  H   -0.000000   0.000000  -0.000001  -0.000000   0.000000  -0.000000
    19  C    0.000415   0.000020   0.000109   0.000000  -0.000031  -0.000001
    20  H    0.000020   0.000018   0.000000  -0.000000  -0.000001  -0.000000
    21  C    0.000110   0.000000  -0.000031  -0.000001  -0.000033  -0.000000
    22  H    0.000000  -0.000000  -0.000001  -0.000000  -0.000000   0.000000
    23  C   -0.000031  -0.000001  -0.000033  -0.000000  -0.000031  -0.000001
    24  H   -0.000001  -0.000000  -0.000000   0.000000  -0.000001  -0.000000
               7          8          9         10         11         12
     1  C    0.549900  -0.048557  -0.028743   0.005268  -0.038322   0.000468
     2  H   -0.048557  -0.006269   0.005268  -0.000215   0.000468   0.000020
     3  C   -0.028743   0.005268  -0.038322   0.000468  -0.028743   0.005268
     4  H    0.005268  -0.000215   0.000468   0.000020   0.005268  -0.000215
     5  C   -0.038322   0.000468  -0.028743   0.005268   0.549900  -0.048557
     6  H    0.000468   0.000020   0.005268  -0.000215  -0.048557  -0.006269
     7  C    4.847536   0.385662   0.549906  -0.048555  -0.028741   0.005268
     8  H    0.385662   0.561705  -0.048555  -0.006270   0.005268  -0.000215
     9  C    0.549906  -0.048555   4.847552   0.385664   0.549906  -0.048555
    10  H   -0.048555  -0.006270   0.385664   0.561696  -0.048555  -0.006270
    11  C   -0.028741   0.005268   0.549906  -0.048555   4.847536   0.385662
    12  H    0.005268  -0.000215  -0.048555  -0.006270   0.385662   0.561705
    13  C   -0.000031  -0.000001  -0.000033  -0.000000  -0.000031  -0.000001
    14  H   -0.000001  -0.000000  -0.000000   0.000000  -0.000001  -0.000000
    15  C   -0.000033  -0.000000  -0.000031  -0.000001   0.000110   0.000000
    16  H   -0.000000   0.000000  -0.000001  -0.000000   0.000000  -0.000000
    17  C   -0.000031  -0.000001   0.000109   0.000000   0.000415   0.000020
    18  H   -0.000001  -0.000000   0.000000  -0.000000   0.000020   0.000018
    19  C    0.000110   0.000000  -0.000031  -0.000001  -0.000033  -0.000000
    20  H    0.000000  -0.000000  -0.000001  -0.000000  -0.000000   0.000000
    21  C    0.000415   0.000020   0.000109   0.000000  -0.000031  -0.000001
    22  H    0.000020   0.000018   0.000000  -0.000000  -0.000001  -0.000000
    23  C    0.000109   0.000000   0.000415   0.000020   0.000109   0.000000
    24  H    0.000000  -0.000000   0.000020   0.000018   0.000000  -0.000000
              13         14         15         16         17         18
     1  C    0.000109   0.000000  -0.000031  -0.000001  -0.000033  -0.000000
     2  H    0.000000  -0.000000  -0.000001  -0.000000  -0.000000   0.000000
     3  C    0.000415   0.000020   0.000109   0.000000  -0.000031  -0.000001
     4  H    0.000020   0.000018   0.000000  -0.000000  -0.000001  -0.000000
     5  C    0.000109   0.000000   0.000415   0.000020   0.000110   0.000000
     6  H    0.000000  -0.000000   0.000020   0.000018   0.000000  -0.000000
     7  C   -0.000031  -0.000001  -0.000033  -0.000000  -0.000031  -0.000001
     8  H   -0.000001  -0.000000  -0.000000   0.000000  -0.000001  -0.000000
     9  C   -0.000033  -0.000000  -0.000031  -0.000001   0.000109   0.000000
    10  H   -0.000000   0.000000  -0.000001  -0.000000   0.000000  -0.000000
    11  C   -0.000031  -0.000001   0.000110   0.000000   0.000415   0.000020
    12  H   -0.000001  -0.000000   0.000000  -0.000000   0.000020   0.000018
    13  C    4.847552   0.385664   0.549906  -0.048555  -0.028743   0.005268
    14  H    0.385664   0.561696  -0.048555  -0.006270   0.005268  -0.000215
    15  C    0.549906  -0.048555   4.847536   0.385662   0.549900  -0.048557
    16  H   -0.048555  -0.006270   0.385662   0.561705  -0.048557  -0.006269
    17  C   -0.028743   0.005268   0.549900  -0.048557   4.847536   0.385662
    18  H    0.005268  -0.000215  -0.048557  -0.006269   0.385662   0.561705
    19  C    0.549906  -0.048555  -0.028741   0.005268  -0.038322   0.000468
    20  H   -0.048555  -0.006270   0.005268  -0.000215   0.000468   0.000020
    21  C   -0.028743   0.005268  -0.038322   0.000468  -0.028741   0.005268
    22  H    0.005268  -0.000215   0.000468   0.000020   0.005268  -0.000215
    23  C   -0.038322   0.000468  -0.028743   0.005268   0.549906  -0.048555
    24  H    0.000468   0.000020   0.005268  -0.000215  -0.048555  -0.006270
              19         20         21         22         23         24
     1  C    0.000415   0.000020   0.000110   0.000000  -0.000031  -0.000001
     2  H    0.000020   0.000018   0.000000  -0.000000  -0.000001  -0.000000
     3  C    0.000109   0.000000  -0.000031  -0.000001  -0.000033  -0.000000
     4  H    0.000000  -0.000000  -0.000001  -0.000000  -0.000000   0.000000
     5  C   -0.000031  -0.000001  -0.000033  -0.000000  -0.000031  -0.000001
     6  H   -0.000001  -0.000000  -0.000000   0.000000  -0.000001  -0.000000
     7  C    0.000110   0.000000   0.000415   0.000020   0.000109   0.000000
     8  H    0.000000  -0.000000   0.000020   0.000018   0.000000  -0.000000
     9  C   -0.000031  -0.000001   0.000109   0.000000   0.000415   0.000020
    10  H   -0.000001  -0.000000   0.000000  -0.000000   0.000020   0.000018
    11  C   -0.000033  -0.000000  -0.000031  -0.000001   0.000109   0.000000
    12  H   -0.000000   0.000000  -0.000001  -0.000000   0.000000  -0.000000
    13  C    0.549906  -0.048555  -0.028743   0.005268  -0.038322   0.000468
    14  H   -0.048555  -0.006270   0.005268  -0.000215   0.000468   0.000020
    15  C   -0.028741   0.005268  -0.038322   0.000468  -0.028743   0.005268
    16  H    0.005268  -0.000215   0.000468   0.000020   0.005268  -0.000215
    17  C   -0.038322   0.000468  -0.028741   0.005268   0.549906  -0.048555
    18  H    0.000468   0.000020   0.005268  -0.000215  -0.048555  -0.006270
    19  C    4.847536   0.385662   0.549900  -0.048557  -0.028743   0.005268
    20  H    0.385662   0.561705  -0.048557  -0.006269   0.005268  -0.000215
    21  C    0.549900  -0.048557   4.847536   0.385662   0.549906  -0.048555
    22  H   -0.048557  -0.006269   0.385662   0.561705  -0.048555  -0.006270
    23  C   -0.028743   0.005268   0.549906  -0.048555   4.847552   0.385664
    24  H    0.005268  -0.000215  -0.048555  -0.006270   0.385664   0.561696
 Mulliken charges:
               1
     1  C   -0.151648
     2  H    0.151655
     3  C   -0.151673
     4  H    0.151659
     5  C   -0.151648
     6  H    0.151655
     7  C   -0.151648
     8  H    0.151655
     9  C   -0.151673
    10  H    0.151659
    11  C   -0.151648
    12  H    0.151655
    13  C   -0.151673
    14  H    0.151659
    15  C   -0.151648
    16  H    0.151655
    17  C   -0.151648
    18  H    0.151655
    19  C   -0.151648
    20  H    0.151655
    21  C   -0.151648
    22  H    0.151655
    23  C   -0.151673
    24  H    0.151659
 Sum of Mulliken charges =  -0.00000
 Mulliken charges with hydrogens summed into heavy atoms:
               1
     1  C    0.000007
     3  C   -0.000013
     5  C    0.000007
     7  C    0.000007
     9  C   -0.000013
    11  C    0.000007
    13  C   -0.000013
    15  C    0.000007
    17  C    0.000007
    19  C    0.000007
    21  C    0.000007
    23  C   -0.000013
 Electronic spatial extent (au):  <R**2>=           2099.5619
 Charge=             -0.0000 electrons
 Dipole moment (field-independent basis, Debye):
    X=             -0.0000    Y=              0.0000    Z=             -0.0000  Tot=              0.0000
 Quadrupole moment (field-independent basis, Debye-Ang):
   XX=            -60.9855   YY=            -60.9857   ZZ=            -76.8370
   XY=             -0.0000   XZ=             -0.0000   YZ=             -0.0000
 Traceless Quadrupole moment (field-independent basis, Debye-Ang):
   XX=              5.2839   YY=              5.2837   ZZ=            -10.5676
   XY=             -0.0000   XZ=             -0.0000   YZ=             -0.0000
 Octapole moment (field-independent basis, Debye-Ang**2):
  XXX=              0.0000  YYY=             -0.0000  ZZZ=             -0.0000  XYY=             -0.0000
  XXY=             -0.0000  XXZ=             -0.0000  XZZ=              0.0000  YZZ=             -0.0000
  YYZ=              0.0000  XYZ=             -0.0000
 Hexadecapole moment (field-independent basis, Debye-Ang**3):
 XXXX=           -511.8043 YYYY=           -511.8024 ZZZZ=          -1914.3352 XXXY=              0.0000
 XXXZ=             -0.0000 YYYX=              0.0000 YYYZ=              0.0000 ZZZX=              0.0000
 ZZZY=             -0.0000 XXYY=           -170.6012 XXZZ=           -359.3430 YYZZ=           -359.3432
 XXYZ=             -0.0000 YYXZ=              0.0000 ZZXY=             -0.0000
 N-N= 6.170384998782D+02 E-N=-2.310442433819D+03  KE= 4.618690493847D+02
 Symmetry AG   KE= 7.614103584333D+01
 Symmetry B1G  KE= 3.768053583384D+01
 Symmetry B2G  KE= 4.269328026068D+01
 Symmetry B3G  KE= 7.450571558608D+01
 Symmetry AU   KE= 3.770427146989D+01
 Symmetry B1U  KE= 7.638043234528D+01
 Symmetry B2U  KE= 7.428381600505D+01
 Symmetry B3U  KE= 4.247996204053D+01
 1\1\GINC-PADAWAN-42\SP\RwB97XD\6-31G(d)\C12H12\PADAWAN\23-Mar-2022\0\\
 #n wB97xd/6-31G(d) SP\\Title\\0,1\C,0,-1.2211,-0.705,0.\H,0,-2.05248,-
 1.185,0.\C,0,0.,-1.41,0.\H,0,0.,-2.37,0.\C,0,1.2211,-0.705,0.\H,0,2.05
 248,-1.185,0.\C,0,-1.2211,0.705,0.\H,0,-2.05248,1.185,0.\C,0,0.,1.41,0
 .\H,0,0.,2.37,0.\C,0,1.2211,0.705,0.\H,0,2.05248,1.185,0.\C,0,0.,-1.41
 ,4.\H,0,0.,-2.37,4.\C,0,1.2211,-0.705,4.\H,0,2.05248,-1.185,4.\C,0,1.2
 211,0.705,4.\H,0,2.05248,1.185,4.\C,0,-1.2211,-0.705,4.\H,0,-2.05248,-
 1.185,4.\C,0,-1.2211,0.705,4.\H,0,-2.05248,1.185,4.\C,0,0.,1.41,4.\H,0
 ,0.,2.37,4.\\Version=ES64L-G16RevA.03\State=1-AG\HF=-464.1685212\RMSD=
 3.482e-09\Dipole=0.,0.,0.\Quadrupole=3.9284308,3.9282976,-7.8567284,0.
 ,0.,0.\PG=D02H [SG(C4H4),X(C8H8)]\\@


 Everything starts as somebody's daydream.
                           -- Larry Niven
 Job cpu time:       0 days  0 hours  2 minutes 15.1 seconds.
 Elapsed time:       0 days  0 hours  0 minutes  4.6 seconds.
 File lengths (MBytes):  RWF=     23 Int=      0 D2E=      0 Chk=      4 Scr=      1
 Normal termination of Gaussian 16 at Wed Mar 23 15:16:45 2022.
