 Entering Gaussian System, Link 0=g16
 Input=benz1.com
 Output=benz1.log
 Initial command:
 /usr/local/g16/l1.exe "/home/padawan/ingrid/Gau-11383.inp" -scrdir="/home/padawan/ingrid/"
 Entering Link 1 = /usr/local/g16/l1.exe PID=     11385.
  
 Copyright (c) 1988,1990,1992,1993,1995,1998,2003,2009,2016,
            Gaussian, Inc.  All Rights Reserved.
  
 This is part of the Gaussian(R) 16 program.  It is based on
 the Gaussian(R) 09 system (copyright 2009, Gaussian, Inc.),
 the Gaussian(R) 03 system (copyright 2003, Gaussian, Inc.),
 the Gaussian(R) 98 system (copyright 1998, Gaussian, Inc.),
 the Gaussian(R) 94 system (copyright 1995, Gaussian, Inc.),
 the Gaussian 92(TM) system (copyright 1992, Gaussian, Inc.),
 the Gaussian 90(TM) system (copyright 1990, Gaussian, Inc.),
 the Gaussian 88(TM) system (copyright 1988, Gaussian, Inc.),
 the Gaussian 86(TM) system (copyright 1986, Carnegie Mellon
 University), and the Gaussian 82(TM) system (copyright 1983,
 Carnegie Mellon University). Gaussian is a federally registered
 trademark of Gaussian, Inc.
  
 This software contains proprietary and confidential information,
 including trade secrets, belonging to Gaussian, Inc.
  
 This software is provided under written license and may be
 used, copied, transmitted, or stored only in accord with that
 written license.
  
 The following legend is applicable only to US Government
 contracts under FAR:
  
                    RESTRICTED RIGHTS LEGEND
  
 Use, reproduction and disclosure by the US Government is
 subject to restrictions as set forth in subparagraphs (a)
 and (c) of the Commercial Computer Software - Restricted
 Rights clause in FAR 52.227-19.
  
 Gaussian, Inc.
 340 Quinnipiac St., Bldg. 40, Wallingford CT 06492
  
  
 ---------------------------------------------------------------
 Warning -- This program may not be used in any manner that
 competes with the business of Gaussian, Inc. or will provide
 assistance to any competitor of Gaussian, Inc.  The licensee
 of this program is prohibited from giving any competitor of
 Gaussian, Inc. access to this program.  By using this program,
 the user acknowledges that Gaussian, Inc. is engaged in the
 business of creating and licensing software in the field of
 computational chemistry and represents and warrants to the
 licensee that it is not a competitor of Gaussian, Inc. and that
 it will not use this program in any manner prohibited above.
 ---------------------------------------------------------------
  

 Cite this work as:
 Gaussian 16, Revision A.03,
 M. J. Frisch, G. W. Trucks, H. B. Schlegel, G. E. Scuseria, 
 M. A. Robb, J. R. Cheeseman, G. Scalmani, V. Barone, 
 G. A. Petersson, H. Nakatsuji, X. Li, M. Caricato, A. V. Marenich, 
 J. Bloino, B. G. Janesko, R. Gomperts, B. Mennucci, H. P. Hratchian, 
 J. V. Ortiz, A. F. Izmaylov, J. L. Sonnenberg, D. Williams-Young, 
 F. Ding, F. Lipparini, F. Egidi, J. Goings, B. Peng, A. Petrone, 
 T. Henderson, D. Ranasinghe, V. G. Zakrzewski, J. Gao, N. Rega, 
 G. Zheng, W. Liang, M. Hada, M. Ehara, K. Toyota, R. Fukuda, 
 J. Hasegawa, M. Ishida, T. Nakajima, Y. Honda, O. Kitao, H. Nakai, 
 T. Vreven, K. Throssell, J. A. Montgomery, Jr., J. E. Peralta, 
 F. Ogliaro, M. J. Bearpark, J. J. Heyd, E. N. Brothers, K. N. Kudin, 
 V. N. Staroverov, T. A. Keith, R. Kobayashi, J. Normand, 
 K. Raghavachari, A. P. Rendell, J. C. Burant, S. S. Iyengar, 
 J. Tomasi, M. Cossi, J. M. Millam, M. Klene, C. Adamo, R. Cammi, 
 J. W. Ochterski, R. L. Martin, K. Morokuma, O. Farkas, 
 J. B. Foresman, and D. J. Fox, Gaussian, Inc., Wallingford CT, 2016.
 
 ******************************************
 Gaussian 16:  ES64L-G16RevA.03 25-Dec-2016
                23-Mar-2022 
 ******************************************
 %nproc=30
 Will use up to   30 processors via shared memory.
 %mem=28GB
 %Chk=benz1.chk
 ---------------------
 #n wB97xd/6-31G(d) SP
 ---------------------
 1/38=1,172=1/1;
 2/12=2,17=6,18=5,40=1/2;
 3/5=1,6=6,7=1,11=2,25=1,30=1,74=-58/1,2,3;
 4//1;
 5/5=2,38=5/2;
 6/7=2,8=2,9=2,10=2,28=1/1;
 99/5=1,9=1/99;
 -----
 Title
 -----
 Symbolic Z-matrix:
 Charge =  0 Multiplicity = 1
 C                    -1.2211   -0.705     0. 
 H                    -2.05248  -1.185     0. 
 C                     0.       -1.41      0. 
 H                     0.       -2.37      0. 
 C                     1.2211   -0.705     0. 
 H                     2.05248  -1.185     0. 
 C                    -1.2211    0.705     0. 
 H                    -2.05248   1.185     0. 
 C                     0.        1.41      0. 
 H                     0.        2.37      0. 
 C                     1.2211    0.705     0. 
 H                     2.05248   1.185     0. 
 C                    -1.04783  -0.94347   4. 
 H                    -1.76125  -1.58584   4. 
 C                     0.29316  -1.37919   4. 
 H                     0.49275  -2.31821   4. 
 C                     1.34099  -0.43571   4. 
 H                     2.254    -0.73237   4. 
 C                    -1.34099   0.43571   4. 
 H                    -2.254     0.73237   4. 
 C                    -0.29316   1.37919   4. 
 H                    -0.49275   2.31821   4. 
 C                     1.04783   0.94347   4. 
 H                     1.76125   1.58584   4. 
 
                          Input orientation:                          
 ---------------------------------------------------------------------
 Center     Atomic      Atomic             Coordinates (Angstroms)
 Number     Number       Type             X           Y           Z
 ---------------------------------------------------------------------
      1          6           0       -1.221100   -0.705000    0.000000
      2          1           0       -2.052480   -1.185000    0.000000
      3          6           0        0.000000   -1.410000    0.000000
      4          1           0        0.000000   -2.370000    0.000000
      5          6           0        1.221100   -0.705000    0.000000
      6          1           0        2.052480   -1.185000    0.000000
      7          6           0       -1.221100    0.705000    0.000000
      8          1           0       -2.052480    1.185000    0.000000
      9          6           0        0.000000    1.410000    0.000000
     10          1           0        0.000000    2.370000    0.000000
     11          6           0        1.221100    0.705000    0.000000
     12          1           0        2.052480    1.185000    0.000000
     13          6           0       -1.047830   -0.943470    4.000000
     14          1           0       -1.761250   -1.585840    4.000000
     15          6           0        0.293160   -1.379190    4.000000
     16          1           0        0.492750   -2.318210    4.000000
     17          6           0        1.340990   -0.435710    4.000000
     18          1           0        2.254000   -0.732370    4.000000
     19          6           0       -1.340990    0.435710    4.000000
     20          1           0       -2.254000    0.732370    4.000000
     21          6           0       -0.293160    1.379190    4.000000
     22          1           0       -0.492750    2.318210    4.000000
     23          6           0        1.047830    0.943470    4.000000
     24          1           0        1.761250    1.585840    4.000000
 ---------------------------------------------------------------------
                    Distance matrix (angstroms):
                    1          2          3          4          5
     1  C    0.000000
     2  H    0.959996   0.000000
     3  C    1.410004   2.064776   0.000000
     4  H    2.064778   2.370000   0.960000   0.000000
     5  C    2.442200   3.308584   1.410004   2.064778   0.000000
     6  H    3.308584   4.104960   2.064776   2.370000   0.959996
     7  C    1.410000   2.064774   2.442194   3.308581   2.820007
     8  H    2.064774   2.370000   3.308580   4.104960   3.780003
     9  C    2.442194   3.308580   2.820000   3.780000   2.442194
    10  H    3.308581   4.104960   3.780000   4.740000   3.308581
    11  C    2.820007   3.780003   2.442194   3.308581   1.410000
    12  H    3.780003   4.740000   3.308580   4.104960   2.064774
    13  C    4.010847   4.131302   4.161202   4.374121   4.604879
    14  H    4.131300   4.030569   4.374119   4.440373   5.066586
    15  C    4.329840   4.641092   4.010847   4.131301   4.161202
    16  H    4.641091   4.874665   4.131301   4.030569   4.374122
    17  C    4.757817   5.298780   4.329838   4.641092   4.010847
    18  H    5.298780   5.894968   4.641088   4.874664   4.131299
    19  C    4.161201   4.374119   4.604878   5.066583   4.885235
    20  H    4.374119   4.440374   5.066583   5.541229   5.490205
    21  C    4.604880   5.066584   4.885235   5.490207   4.757818
    22  H    5.066586   5.541231   5.490205   6.182404   5.298781
    23  C    4.885233   5.490201   4.757811   5.298776   4.329836
    24  H    5.490206   6.182402   5.298779   5.894970   4.641089
                    6          7          8          9         10
     6  H    0.000000
     7  C    3.780003   0.000000
     8  H    4.740000   0.959996   0.000000
     9  C    3.308580   1.410004   2.064776   0.000000
    10  H    4.104960   2.064778   2.370000   0.960000   0.000000
    11  C    2.064774   2.442200   3.308584   1.410004   2.064778
    12  H    2.370000   3.308584   4.104960   2.064776   2.370000
    13  C    5.066583   4.329836   4.641089   4.757811   5.298776
    14  H    5.541228   4.641089   4.874666   5.298779   5.894970
    15  C    4.374119   4.757818   5.298783   4.885235   5.490207
    16  H    4.440374   5.298781   5.894970   5.490205   6.182404
    17  C    4.131302   4.885235   5.490204   4.604878   5.066583
    18  H    4.030569   5.490205   6.182401   5.066583   5.541229
    19  C    5.490204   4.010847   4.131302   4.329838   4.641092
    20  H    6.182401   4.131299   4.030569   4.641088   4.874664
    21  C    5.298783   4.161202   4.374119   4.010847   4.131301
    22  H    5.894970   4.374122   4.440374   4.131301   4.030569
    23  C    4.641089   4.604879   5.066583   4.161202   4.374121
    24  H    4.874666   5.066586   5.541228   4.374119   4.440373
                   11         12         13         14         15
    11  C    0.000000
    12  H    0.959996   0.000000
    13  C    4.885233   5.490201   0.000000
    14  H    5.490206   6.182402   0.960004   0.000000
    15  C    4.604880   5.066584   1.410002   2.064777   0.000000
    16  H    5.066586   5.541231   2.064775   2.369996   0.959997
    17  C    4.161201   4.374119   2.442188   3.308579   1.410001
    18  H    4.374119   4.440374   3.308571   4.104954   2.064769
    19  C    4.757817   5.298780   1.409993   2.064772   2.442193
    20  H    5.298780   5.894968   2.064773   2.370000   3.308581
    21  C    4.329840   4.641092   2.442187   3.308578   2.820006
    22  H    4.641091   4.874665   3.308575   4.104960   3.780003
    23  C    4.010847   4.131302   2.819988   3.779992   2.442187
    24  H    4.131300   4.030569   3.779992   4.739996   3.308578
                   16         17         18         19         20
    16  H    0.000000
    17  C    2.064780   0.000000
    18  H    2.369998   0.959997   0.000000
    19  C    3.308576   2.819998   3.779995   0.000000
    20  H    4.104957   3.779995   4.739992   0.959997   0.000000
    21  C    3.780003   2.442193   3.308581   1.410001   2.064769
    22  H    4.740000   3.308576   4.104957   2.064780   2.369998
    23  C    3.308575   1.409993   2.064773   2.442188   3.308571
    24  H    4.104960   2.064772   2.370000   3.308579   4.104954
                   21         22         23         24
    21  C    0.000000
    22  H    0.959997   0.000000
    23  C    1.410002   2.064775   0.000000
    24  H    2.064777   2.369996   0.960004   0.000000
 Stoichiometry    C12H12
 Framework group  C2[X(C12H12)]
 Deg. of freedom    34
 Full point group                 C2      NOp   2
 Largest Abelian subgroup         C2      NOp   2
 Largest concise Abelian subgroup C2      NOp   2
                         Standard orientation:                         
 ---------------------------------------------------------------------
 Center     Atomic      Atomic             Coordinates (Angstroms)
 Number     Number       Type             X           Y           Z
 ---------------------------------------------------------------------
      1          6           0       -1.221100    0.705000    2.000000
      2          1           0       -2.052480    1.185000    2.000000
      3          6           0        0.000000    1.410000    2.000000
      4          1           0        0.000000    2.370000    2.000000
      5          6           0        1.221100    0.705000    2.000000
      6          1           0        2.052480    1.185000    2.000000
      7          6           0       -1.221100   -0.705000    2.000000
      8          1           0       -2.052480   -1.185000    2.000000
      9          6           0       -0.000000   -1.410000    2.000000
     10          1           0       -0.000000   -2.370000    2.000000
     11          6           0        1.221100   -0.705000    2.000000
     12          1           0        2.052480   -1.185000    2.000000
     13          6           0       -1.047830    0.943470   -2.000000
     14          1           0       -1.761250    1.585840   -2.000000
     15          6           0        0.293160    1.379190   -2.000000
     16          1           0        0.492750    2.318210   -2.000000
     17          6           0        1.340990    0.435710   -2.000000
     18          1           0        2.254000    0.732370   -2.000000
     19          6           0       -1.340990   -0.435710   -2.000000
     20          1           0       -2.254000   -0.732370   -2.000000
     21          6           0       -0.293160   -1.379190   -2.000000
     22          1           0       -0.492750   -2.318210   -2.000000
     23          6           0        1.047830   -0.943470   -2.000000
     24          1           0        1.761250   -1.585840   -2.000000
 ---------------------------------------------------------------------
 Rotational constants (GHZ):           1.4267506           0.6305543           0.6305538
 Standard basis: 6-31G(d) (6D, 7F)
 There are   102 symmetry adapted cartesian basis functions of A   symmetry.
 There are   102 symmetry adapted cartesian basis functions of B   symmetry.
 There are   102 symmetry adapted basis functions of A   symmetry.
 There are   102 symmetry adapted basis functions of B   symmetry.
   204 basis functions,   384 primitive gaussians,   204 cartesian basis functions
    42 alpha electrons       42 beta electrons
       nuclear repulsion energy       617.0520335269 Hartrees.
 NAtoms=   24 NActive=   24 NUniq=   12 SFac= 4.00D+00 NAtFMM=   60 NAOKFM=F Big=F
 Integral buffers will be    131072 words long.
 Raffenetti 2 integral format.
 Two-electron integral symmetry is turned on.
 Nuclear repulsion after empirical dispersion term =      617.0386364440 Hartrees.
 One-electron integrals computed using PRISM.
 NBasis=   204 RedAO= T EigKep=  5.05D-04  NBF=   102   102
 NBsUse=   204 1.00D-06 EigRej= -1.00D+00 NBFU=   102   102
 ExpMin= 1.61D-01 ExpMax= 3.05D+03 ExpMxC= 4.57D+02 IAcc=3 IRadAn=         5 AccDes= 0.00D+00
 Harris functional with IExCor= 4639 and IRadAn=       5 diagonalized for initial guess.
 HarFok:  IExCor= 4639 AccDes= 0.00D+00 IRadAn=         5 IDoV= 1 UseB2=F ITyADJ=14
 ICtDFT=  3500011 ScaDFX=  1.000000  1.000000  1.000000  1.000000
 FoFCou: FMM=F IPFlag=           0 FMFlag=      100000 FMFlg1=           0
         NFxFlg=           0 DoJE=T BraDBF=F KetDBF=T FulRan=T
         wScrn=  0.000000 ICntrl=       500 IOpCl=  0 I1Cent=   200000004 NGrid=           0
         NMat0=    1 NMatS0=      1 NMatT0=    0 NMatD0=    1 NMtDS0=    0 NMtDT0=    0
 Petite list used in FoFCou.
 Initial guess orbital symmetries:
       Occupied  (A) (A) (B) (B) (B) (B) (A) (A) (A) (A) (B) (B)
                 (A) (A) (B) (B) (B) (B) (A) (A) (A) (A) (A) (A)
                 (B) (B) (B) (B) (B) (B) (B) (B) (A) (A) (A) (A)
                 (A) (A) (B) (B) (B) (B)
       Virtual   (A) (A) (A) (A) (B) (A) (B) (A) (B) (B) (B) (B)
                 (A) (A) (A) (A) (B) (B) (B) (B) (B) (B) (A) (A)
                 (A) (A) (A) (B) (B) (A) (A) (B) (B) (A) (A) (B)
                 (B) (A) (A) (A) (A) (A) (A) (B) (B) (B) (B) (A)
                 (A) (A) (B) (B) (B) (A) (A) (B) (B) (B) (B) (B)
                 (A) (A) (B) (B) (A) (A) (A) (A) (B) (B) (B) (B)
                 (A) (A) (A) (A) (B) (B) (A) (A) (B) (B) (B) (B)
                 (B) (B) (A) (A) (A) (A) (A) (A) (B) (B) (A) (A)
                 (B) (B) (A) (A) (B) (A) (B) (A) (B) (A) (A) (A)
                 (A) (B) (A) (A) (B) (B) (A) (A) (B) (B) (B) (B)
                 (A) (A) (B) (B) (B) (B) (B) (B) (B) (B) (A) (A)
                 (A) (A) (A) (A) (B) (B) (B) (B) (A) (A) (A) (A)
                 (B) (B) (A) (A) (B) (B) (A) (B) (B) (A) (B) (B)
                 (A) (A) (A) (A) (B) (B)
 The electronic state of the initial guess is 1-A.
 Requested convergence on RMS density matrix=1.00D-08 within 128 cycles.
 Requested convergence on MAX density matrix=1.00D-06.
 Requested convergence on             energy=1.00D-06.
 No special actions if energy rises.
 Integral accuracy reduced to 1.0D-05 until final iterations.
 Initial convergence to 1.0D-05 achieved.  Increase integral accuracy.
 SCF Done:  E(RwB97XD) =  -464.168514418     A.U. after   11 cycles
            NFock= 11  Conv=0.49D-08     -V/T= 2.0050

 **********************************************************************

            Population analysis using the SCF density.

 **********************************************************************

 Orbital symmetries:
       Occupied  (A) (A) (B) (B) (B) (B) (A) (A) (A) (A) (B) (B)
                 (A) (A) (B) (B) (B) (B) (A) (A) (A) (A) (A) (A)
                 (B) (B) (B) (B) (B) (B) (B) (B) (A) (A) (A) (A)
                 (A) (A) (B) (B) (B) (B)
       Virtual   (A) (A) (A) (A) (A) (A) (B) (B) (B) (B) (B) (B)
                 (A) (A) (A) (A) (B) (B) (B) (B) (A) (A) (B) (B)
                 (A) (A) (A) (B) (B) (A) (B) (B) (B) (A) (A) (A)
                 (B) (A) (A) (A) (A) (A) (A) (B) (B) (B) (B) (A)
                 (A) (A) (B) (B) (B) (A) (A) (B) (B) (B) (B) (B)
                 (A) (A) (B) (B) (A) (A) (A) (A) (B) (B) (B) (B)
                 (A) (A) (A) (A) (A) (A) (B) (B) (B) (B) (B) (B)
                 (B) (B) (A) (A) (A) (A) (A) (A) (A) (A) (B) (B)
                 (B) (B) (A) (A) (A) (B) (A) (B) (B) (A) (B) (A)
                 (A) (A) (A) (A) (B) (B) (A) (A) (B) (B) (A) (A)
                 (B) (B) (B) (B) (B) (B) (B) (B) (B) (B) (A) (A)
                 (A) (A) (A) (A) (B) (B) (B) (B) (B) (A) (A) (A)
                 (A) (B) (A) (A) (B) (B) (A) (B) (B) (A) (B) (B)
                 (A) (A) (A) (A) (B) (B)
 The electronic state is 1-A.
 Alpha  occ. eigenvalues --  -10.27984 -10.27983 -10.27960 -10.27960 -10.27959
 Alpha  occ. eigenvalues --  -10.27959 -10.27908 -10.27907 -10.27907 -10.27907
 Alpha  occ. eigenvalues --  -10.27883 -10.27883  -0.93687  -0.93550  -0.84025
 Alpha  occ. eigenvalues --   -0.84025  -0.83908  -0.83908  -0.70424  -0.70424
 Alpha  occ. eigenvalues --   -0.70329  -0.70329  -0.62389  -0.62300  -0.58390
 Alpha  occ. eigenvalues --   -0.58322  -0.51119  -0.51082  -0.50946  -0.50946
 Alpha  occ. eigenvalues --   -0.50881  -0.50881  -0.44236  -0.42570  -0.42465
 Alpha  occ. eigenvalues --   -0.42465  -0.42427  -0.42427  -0.31796  -0.31796
 Alpha  occ. eigenvalues --   -0.30320  -0.30319
 Alpha virt. eigenvalues --    0.07119   0.07120   0.08648   0.08648   0.21763
 Alpha virt. eigenvalues --    0.22847   0.24257   0.25363   0.26358   0.26358
 Alpha virt. eigenvalues --    0.27643   0.27643   0.28557   0.28557   0.29600
 Alpha virt. eigenvalues --    0.29600   0.31276   0.32315   0.39503   0.39504
 Alpha virt. eigenvalues --    0.39537   0.39537   0.39823   0.39823   0.40248
 Alpha virt. eigenvalues --    0.40248   0.54784   0.56539   0.57985   0.61905
 Alpha virt. eigenvalues --    0.62608   0.62609   0.63886   0.63895   0.64424
 Alpha virt. eigenvalues --    0.64524   0.64693   0.65427   0.67150   0.68024
 Alpha virt. eigenvalues --    0.68024   0.70632   0.70633   0.71670   0.71670
 Alpha virt. eigenvalues --    0.72513   0.72513   0.73475   0.73476   0.78117
 Alpha virt. eigenvalues --    0.81510   0.81549   0.81550   0.82907   0.82907
 Alpha virt. eigenvalues --    0.88767   0.98482   0.99483   1.00848   1.00848
 Alpha virt. eigenvalues --    1.03692   1.03692   1.04173   1.04173   1.04690
 Alpha virt. eigenvalues --    1.04690   1.06210   1.06498   1.07006   1.07006
 Alpha virt. eigenvalues --    1.08744   1.08744   1.13072   1.13073   1.13762
 Alpha virt. eigenvalues --    1.15897   1.19487   1.19487   1.21223   1.21224
 Alpha virt. eigenvalues --    1.25428   1.25429   1.30138   1.35092   1.35515
 Alpha virt. eigenvalues --    1.35608   1.47842   1.47911   1.57091   1.57091
 Alpha virt. eigenvalues --    1.57224   1.57224   1.57474   1.57474   1.59220
 Alpha virt. eigenvalues --    1.59220   1.59442   1.59442   1.63198   1.63198
 Alpha virt. eigenvalues --    1.84802   1.86287   1.86570   1.87319   2.03994
 Alpha virt. eigenvalues --    2.10856   2.11032   2.12627   2.14678   2.14678
 Alpha virt. eigenvalues --    2.16086   2.16087   2.19324   2.19324   2.21484
 Alpha virt. eigenvalues --    2.21485   2.23199   2.23199   2.24446   2.24446
 Alpha virt. eigenvalues --    2.24540   2.24540   2.27185   2.27185   2.37421
 Alpha virt. eigenvalues --    2.38612   2.38613   2.39576   2.39577   2.39884
 Alpha virt. eigenvalues --    2.64886   2.64887   2.69540   2.69540   2.72360
 Alpha virt. eigenvalues --    2.72360   2.79346   2.79346   2.80058   2.80058
 Alpha virt. eigenvalues --    2.86725   2.87776   2.87776   2.88331   2.88331
 Alpha virt. eigenvalues --    2.95203   3.08805   3.08977   3.57804   3.59468
 Alpha virt. eigenvalues --    4.18747   4.22079   4.22079   4.24134   4.29288
 Alpha virt. eigenvalues --    4.29288   4.44287   4.44287   4.49512   4.49512
 Alpha virt. eigenvalues --    4.77366   4.82864
          Condensed to atoms (all electrons):
               1          2          3          4          5          6
     1  C    4.847564   0.385666   0.549900  -0.048550  -0.028743   0.005268
     2  H    0.385666   0.561703  -0.048563  -0.006270   0.005269  -0.000215
     3  C    0.549900  -0.048563   4.847613   0.385669   0.549876  -0.048553
     4  H   -0.048550  -0.006270   0.385669   0.561694  -0.048562  -0.006270
     5  C   -0.028743   0.005269   0.549876  -0.048562   4.847549   0.385665
     6  H    0.005268  -0.000215  -0.048553  -0.006270   0.385665   0.561703
     7  C    0.549882  -0.048553  -0.028742   0.005268  -0.038324   0.000468
     8  H   -0.048564  -0.006269   0.005269  -0.000215   0.000468   0.000020
     9  C   -0.028739   0.005268  -0.038324   0.000468  -0.028742   0.005269
    10  H    0.005269  -0.000215   0.000468   0.000020   0.005268  -0.000215
    11  C   -0.038321   0.000468  -0.028739   0.005269   0.549882  -0.048564
    12  H    0.000468   0.000020   0.005268  -0.000215  -0.048553  -0.006269
    13  C    0.000399   0.000018   0.000197   0.000003  -0.000028  -0.000000
    14  H    0.000018   0.000015   0.000003   0.000000  -0.000000  -0.000000
    15  C    0.000040  -0.000000   0.000400   0.000018   0.000197   0.000003
    16  H   -0.000000  -0.000000   0.000018   0.000015   0.000003   0.000000
    17  C   -0.000034  -0.000001   0.000040  -0.000000   0.000400   0.000018
    18  H   -0.000001  -0.000000  -0.000000  -0.000000   0.000018   0.000015
    19  C    0.000197   0.000003  -0.000027  -0.000000  -0.000033  -0.000000
    20  H    0.000003   0.000000  -0.000000  -0.000000  -0.000000   0.000000
    21  C   -0.000028  -0.000000  -0.000033  -0.000000  -0.000034  -0.000001
    22  H   -0.000000  -0.000000  -0.000000   0.000000  -0.000001  -0.000000
    23  C   -0.000033  -0.000000  -0.000034  -0.000001   0.000040  -0.000000
    24  H   -0.000000   0.000000  -0.000001  -0.000000  -0.000000  -0.000000
               7          8          9         10         11         12
     1  C    0.549882  -0.048564  -0.028739   0.005269  -0.038321   0.000468
     2  H   -0.048553  -0.006269   0.005268  -0.000215   0.000468   0.000020
     3  C   -0.028742   0.005269  -0.038324   0.000468  -0.028739   0.005268
     4  H    0.005268  -0.000215   0.000468   0.000020   0.005269  -0.000215
     5  C   -0.038324   0.000468  -0.028742   0.005268   0.549882  -0.048553
     6  H    0.000468   0.000020   0.005269  -0.000215  -0.048564  -0.006269
     7  C    4.847549   0.385665   0.549876  -0.048562  -0.028743   0.005269
     8  H    0.385665   0.561703  -0.048553  -0.006270   0.005268  -0.000215
     9  C    0.549876  -0.048553   4.847613   0.385669   0.549900  -0.048563
    10  H   -0.048562  -0.006270   0.385669   0.561694  -0.048550  -0.006270
    11  C   -0.028743   0.005268   0.549900  -0.048550   4.847564   0.385666
    12  H    0.005269  -0.000215  -0.048563  -0.006270   0.385666   0.561703
    13  C    0.000040  -0.000000  -0.000034  -0.000001  -0.000033  -0.000000
    14  H   -0.000000  -0.000000  -0.000001  -0.000000  -0.000000   0.000000
    15  C   -0.000034  -0.000001  -0.000033  -0.000000  -0.000028  -0.000000
    16  H   -0.000001  -0.000000  -0.000000   0.000000  -0.000000  -0.000000
    17  C   -0.000033  -0.000000  -0.000027  -0.000000   0.000197   0.000003
    18  H   -0.000000   0.000000  -0.000000  -0.000000   0.000003   0.000000
    19  C    0.000400   0.000018   0.000040  -0.000000  -0.000034  -0.000001
    20  H    0.000018   0.000015  -0.000000  -0.000000  -0.000001  -0.000000
    21  C    0.000197   0.000003   0.000400   0.000018   0.000040  -0.000000
    22  H    0.000003   0.000000   0.000018   0.000015  -0.000000  -0.000000
    23  C   -0.000028  -0.000000   0.000197   0.000003   0.000399   0.000018
    24  H   -0.000000  -0.000000   0.000003   0.000000   0.000018   0.000015
              13         14         15         16         17         18
     1  C    0.000399   0.000018   0.000040  -0.000000  -0.000034  -0.000001
     2  H    0.000018   0.000015  -0.000000  -0.000000  -0.000001  -0.000000
     3  C    0.000197   0.000003   0.000400   0.000018   0.000040  -0.000000
     4  H    0.000003   0.000000   0.000018   0.000015  -0.000000  -0.000000
     5  C   -0.000028  -0.000000   0.000197   0.000003   0.000400   0.000018
     6  H   -0.000000  -0.000000   0.000003   0.000000   0.000018   0.000015
     7  C    0.000040  -0.000000  -0.000034  -0.000001  -0.000033  -0.000000
     8  H   -0.000000  -0.000000  -0.000001  -0.000000  -0.000000   0.000000
     9  C   -0.000034  -0.000001  -0.000033  -0.000000  -0.000027  -0.000000
    10  H   -0.000001  -0.000000  -0.000000   0.000000  -0.000000  -0.000000
    11  C   -0.000033  -0.000000  -0.000028  -0.000000   0.000197   0.000003
    12  H   -0.000000   0.000000  -0.000000  -0.000000   0.000003   0.000000
    13  C    4.847552   0.385666   0.549873  -0.048564  -0.028743   0.005269
    14  H    0.385666   0.561689  -0.048551  -0.006270   0.005268  -0.000215
    15  C    0.549873  -0.048551   4.847599   0.385667   0.549887  -0.048565
    16  H   -0.048564  -0.006270   0.385667   0.561702  -0.048553  -0.006270
    17  C   -0.028743   0.005268   0.549887  -0.048553   4.847589   0.385666
    18  H    0.005269  -0.000215  -0.048565  -0.006270   0.385666   0.561707
    19  C    0.549898  -0.048563  -0.028737   0.005269  -0.038322   0.000468
    20  H   -0.048553  -0.006270   0.005268  -0.000215   0.000468   0.000020
    21  C   -0.028745   0.005269  -0.038324   0.000468  -0.028737   0.005268
    22  H    0.005268  -0.000215   0.000468   0.000020   0.005269  -0.000215
    23  C   -0.038321   0.000468  -0.028745   0.005268   0.549898  -0.048553
    24  H    0.000468   0.000020   0.005269  -0.000215  -0.048563  -0.006270
              19         20         21         22         23         24
     1  C    0.000197   0.000003  -0.000028  -0.000000  -0.000033  -0.000000
     2  H    0.000003   0.000000  -0.000000  -0.000000  -0.000000   0.000000
     3  C   -0.000027  -0.000000  -0.000033  -0.000000  -0.000034  -0.000001
     4  H   -0.000000  -0.000000  -0.000000   0.000000  -0.000001  -0.000000
     5  C   -0.000033  -0.000000  -0.000034  -0.000001   0.000040  -0.000000
     6  H   -0.000000   0.000000  -0.000001  -0.000000  -0.000000  -0.000000
     7  C    0.000400   0.000018   0.000197   0.000003  -0.000028  -0.000000
     8  H    0.000018   0.000015   0.000003   0.000000  -0.000000  -0.000000
     9  C    0.000040  -0.000000   0.000400   0.000018   0.000197   0.000003
    10  H   -0.000000  -0.000000   0.000018   0.000015   0.000003   0.000000
    11  C   -0.000034  -0.000001   0.000040  -0.000000   0.000399   0.000018
    12  H   -0.000001  -0.000000  -0.000000  -0.000000   0.000018   0.000015
    13  C    0.549898  -0.048553  -0.028745   0.005268  -0.038321   0.000468
    14  H   -0.048563  -0.006270   0.005269  -0.000215   0.000468   0.000020
    15  C   -0.028737   0.005268  -0.038324   0.000468  -0.028745   0.005269
    16  H    0.005269  -0.000215   0.000468   0.000020   0.005268  -0.000215
    17  C   -0.038322   0.000468  -0.028737   0.005269   0.549898  -0.048563
    18  H    0.000468   0.000020   0.005268  -0.000215  -0.048553  -0.006270
    19  C    4.847589   0.385666   0.549887  -0.048553  -0.028743   0.005268
    20  H    0.385666   0.561707  -0.048565  -0.006270   0.005269  -0.000215
    21  C    0.549887  -0.048565   4.847599   0.385667   0.549873  -0.048551
    22  H   -0.048553  -0.006270   0.385667   0.561702  -0.048564  -0.006270
    23  C   -0.028743   0.005269   0.549873  -0.048564   4.847552   0.385666
    24  H    0.005268  -0.000215  -0.048551  -0.006270   0.385666   0.561689
 Mulliken charges:
               1
     1  C   -0.151661
     2  H    0.151659
     3  C   -0.151705
     4  H    0.151661
     5  C   -0.151614
     6  H    0.151660
     7  C   -0.151614
     8  H    0.151660
     9  C   -0.151705
    10  H    0.151661
    11  C   -0.151661
    12  H    0.151659
    13  C   -0.151630
    14  H    0.151672
    15  C   -0.151670
    16  H    0.151660
    17  C   -0.151689
    18  H    0.151656
    19  C   -0.151689
    20  H    0.151656
    21  C   -0.151670
    22  H    0.151660
    23  C   -0.151630
    24  H    0.151672
 Sum of Mulliken charges =  -0.00000
 Mulliken charges with hydrogens summed into heavy atoms:
               1
     1  C   -0.000002
     3  C   -0.000043
     5  C    0.000045
     7  C    0.000045
     9  C   -0.000043
    11  C   -0.000002
    13  C    0.000042
    15  C   -0.000009
    17  C   -0.000033
    19  C   -0.000033
    21  C   -0.000009
    23  C    0.000042
 Electronic spatial extent (au):  <R**2>=           2099.5597
 Charge=             -0.0000 electrons
 Dipole moment (field-independent basis, Debye):
    X=              0.0000    Y=             -0.0000    Z=             -0.0002  Tot=              0.0002
 Quadrupole moment (field-independent basis, Debye-Ang):
   XX=            -60.9853   YY=            -60.9853   ZZ=            -76.8366
   XY=             -0.0000   XZ=             -0.0000   YZ=             -0.0000
 Traceless Quadrupole moment (field-independent basis, Debye-Ang):
   XX=              5.2838   YY=              5.2837   ZZ=            -10.5675
   XY=             -0.0000   XZ=             -0.0000   YZ=             -0.0000
 Octapole moment (field-independent basis, Debye-Ang**2):
  XXX=             -0.0000  YYY=             -0.0000  ZZZ=             -0.0009  XYY=             -0.0000
  XXY=              0.0000  XXZ=              0.0003  XZZ=              0.0000  YZZ=             -0.0000
  YYZ=             -0.0007  XYZ=              0.0004
 Hexadecapole moment (field-independent basis, Debye-Ang**3):
 XXXX=           -511.8001 YYYY=           -511.7986 ZZZZ=          -1914.3315 XXXY=             -0.0002
 XXXZ=              0.0000 YYYX=             -0.0003 YYYZ=              0.0000 ZZZX=             -0.0000
 ZZZY=              0.0000 XXYY=           -170.5996 XXZZ=           -359.3417 YYZZ=           -359.3415
 XXYZ=             -0.0000 YYXZ=              0.0000 ZZXY=             -0.0001
 N-N= 6.170386364440D+02 E-N=-2.310442681960D+03  KE= 4.618689261972D+02
 Symmetry A    KE= 2.279062950778D+02
 Symmetry B    KE= 2.339626311193D+02
 1\1\GINC-PADAWAN-42\SP\RwB97XD\6-31G(d)\C12H12\PADAWAN\23-Mar-2022\0\\
 #n wB97xd/6-31G(d) SP\\Title\\0,1\C,0,-1.2211,-0.705,0.\H,0,-2.05248,-
 1.185,0.\C,0,0.,-1.41,0.\H,0,0.,-2.37,0.\C,0,1.2211,-0.705,0.\H,0,2.05
 248,-1.185,0.\C,0,-1.2211,0.705,0.\H,0,-2.05248,1.185,0.\C,0,0.,1.41,0
 .\H,0,0.,2.37,0.\C,0,1.2211,0.705,0.\H,0,2.05248,1.185,0.\C,0,-1.04783
 ,-0.94347,4.\H,0,-1.76125,-1.58584,4.\C,0,0.29316,-1.37919,4.\H,0,0.49
 275,-2.31821,4.\C,0,1.34099,-0.43571,4.\H,0,2.254,-0.73237,4.\C,0,-1.3
 4099,0.43571,4.\H,0,-2.254,0.73237,4.\C,0,-0.29316,1.37919,4.\H,0,-0.4
 9275,2.31821,4.\C,0,1.04783,0.94347,4.\H,0,1.76125,1.58584,4.\\Version
 =ES64L-G16RevA.03\State=1-A\HF=-464.1685144\RMSD=4.922e-09\Dipole=0.,0
 .,0.0000658\Quadrupole=3.9283501,3.9283339,-7.856684,0.0000107,0.,0.\P
 G=C02 [X(C12H12)]\\@


 YOU ARE IN A MAZE OF TWISTY LITTLE PASSAGES.
 Job cpu time:       0 days  0 hours  3 minutes 22.9 seconds.
 Elapsed time:       0 days  0 hours  0 minutes  6.8 seconds.
 File lengths (MBytes):  RWF=     26 Int=      0 D2E=      0 Chk=      4 Scr=      1
 Normal termination of Gaussian 16 at Wed Mar 23 15:16:10 2022.
