 Entering Gaussian System, Link 0=g16
 Input=benz3.com
 Output=benz3.log
 Initial command:
 /usr/local/g16/l1.exe "/home/padawan/ingrid/Gau-11680.inp" -scrdir="/home/padawan/ingrid/"
 Entering Link 1 = /usr/local/g16/l1.exe PID=     11683.
  
 Copyright (c) 1988,1990,1992,1993,1995,1998,2003,2009,2016,
            Gaussian, Inc.  All Rights Reserved.
  
 This is part of the Gaussian(R) 16 program.  It is based on
 the Gaussian(R) 09 system (copyright 2009, Gaussian, Inc.),
 the Gaussian(R) 03 system (copyright 2003, Gaussian, Inc.),
 the Gaussian(R) 98 system (copyright 1998, Gaussian, Inc.),
 the Gaussian(R) 94 system (copyright 1995, Gaussian, Inc.),
 the Gaussian 92(TM) system (copyright 1992, Gaussian, Inc.),
 the Gaussian 90(TM) system (copyright 1990, Gaussian, Inc.),
 the Gaussian 88(TM) system (copyright 1988, Gaussian, Inc.),
 the Gaussian 86(TM) system (copyright 1986, Carnegie Mellon
 University), and the Gaussian 82(TM) system (copyright 1983,
 Carnegie Mellon University). Gaussian is a federally registered
 trademark of Gaussian, Inc.
  
 This software contains proprietary and confidential information,
 including trade secrets, belonging to Gaussian, Inc.
  
 This software is provided under written license and may be
 used, copied, transmitted, or stored only in accord with that
 written license.
  
 The following legend is applicable only to US Government
 contracts under FAR:
  
                    RESTRICTED RIGHTS LEGEND
  
 Use, reproduction and disclosure by the US Government is
 subject to restrictions as set forth in subparagraphs (a)
 and (c) of the Commercial Computer Software - Restricted
 Rights clause in FAR 52.227-19.
  
 Gaussian, Inc.
 340 Quinnipiac St., Bldg. 40, Wallingford CT 06492
  
  
 ---------------------------------------------------------------
 Warning -- This program may not be used in any manner that
 competes with the business of Gaussian, Inc. or will provide
 assistance to any competitor of Gaussian, Inc.  The licensee
 of this program is prohibited from giving any competitor of
 Gaussian, Inc. access to this program.  By using this program,
 the user acknowledges that Gaussian, Inc. is engaged in the
 business of creating and licensing software in the field of
 computational chemistry and represents and warrants to the
 licensee that it is not a competitor of Gaussian, Inc. and that
 it will not use this program in any manner prohibited above.
 ---------------------------------------------------------------
  

 Cite this work as:
 Gaussian 16, Revision A.03,
 M. J. Frisch, G. W. Trucks, H. B. Schlegel, G. E. Scuseria, 
 M. A. Robb, J. R. Cheeseman, G. Scalmani, V. Barone, 
 G. A. Petersson, H. Nakatsuji, X. Li, M. Caricato, A. V. Marenich, 
 J. Bloino, B. G. Janesko, R. Gomperts, B. Mennucci, H. P. Hratchian, 
 J. V. Ortiz, A. F. Izmaylov, J. L. Sonnenberg, D. Williams-Young, 
 F. Ding, F. Lipparini, F. Egidi, J. Goings, B. Peng, A. Petrone, 
 T. Henderson, D. Ranasinghe, V. G. Zakrzewski, J. Gao, N. Rega, 
 G. Zheng, W. Liang, M. Hada, M. Ehara, K. Toyota, R. Fukuda, 
 J. Hasegawa, M. Ishida, T. Nakajima, Y. Honda, O. Kitao, H. Nakai, 
 T. Vreven, K. Throssell, J. A. Montgomery, Jr., J. E. Peralta, 
 F. Ogliaro, M. J. Bearpark, J. J. Heyd, E. N. Brothers, K. N. Kudin, 
 V. N. Staroverov, T. A. Keith, R. Kobayashi, J. Normand, 
 K. Raghavachari, A. P. Rendell, J. C. Burant, S. S. Iyengar, 
 J. Tomasi, M. Cossi, J. M. Millam, M. Klene, C. Adamo, R. Cammi, 
 J. W. Ochterski, R. L. Martin, K. Morokuma, O. Farkas, 
 J. B. Foresman, and D. J. Fox, Gaussian, Inc., Wallingford CT, 2016.
 
 ******************************************
 Gaussian 16:  ES64L-G16RevA.03 25-Dec-2016
                23-Mar-2022 
 ******************************************
 %nproc=30
 Will use up to   30 processors via shared memory.
 %mem=28GB
 %Chk=benz3.chk
 ---------------------
 #n wB97xd/6-31G(d) SP
 ---------------------
 1/38=1,172=1/1;
 2/12=2,17=6,18=5,40=1/2;
 3/5=1,6=6,7=1,11=2,25=1,30=1,74=-58/1,2,3;
 4//1;
 5/5=2,38=5/2;
 6/7=2,8=2,9=2,10=2,28=1/1;
 99/5=1,9=1/99;
 -----
 Title
 -----
 Symbolic Z-matrix:
 Charge =  0 Multiplicity = 1
 C                    -1.2211   -0.705     0. 
 H                    -2.05248  -1.185     0. 
 C                     0.       -1.41      0. 
 H                     0.       -2.37      0. 
 C                     1.2211   -0.705     0. 
 H                     2.05248  -1.185     0. 
 C                    -1.2211    0.705     0. 
 H                    -2.05248   1.185     0. 
 C                     0.        1.41      0. 
 H                     0.        2.37      0. 
 C                     1.2211    0.705     0. 
 H                     2.05248   1.185     0. 
 C                    -0.5735   -1.2881    4. 
 H                    -0.96397  -2.1651    4. 
 C                     0.82878  -1.14071   4. 
 H                     1.39305  -1.91737   4. 
 C                     1.40228   0.14739   4. 
 H                     2.35702   0.24773   4. 
 C                    -1.40228  -0.14739   4. 
 H                    -2.35702  -0.24773   4. 
 C                    -0.82878   1.14071   4. 
 H                    -1.39305   1.91737   4. 
 C                     0.5735    1.2881    4. 
 H                     0.96397   2.1651    4. 
 
                          Input orientation:                          
 ---------------------------------------------------------------------
 Center     Atomic      Atomic             Coordinates (Angstroms)
 Number     Number       Type             X           Y           Z
 ---------------------------------------------------------------------
      1          6           0       -1.221100   -0.705000    0.000000
      2          1           0       -2.052480   -1.185000    0.000000
      3          6           0        0.000000   -1.410000    0.000000
      4          1           0        0.000000   -2.370000    0.000000
      5          6           0        1.221100   -0.705000    0.000000
      6          1           0        2.052480   -1.185000    0.000000
      7          6           0       -1.221100    0.705000    0.000000
      8          1           0       -2.052480    1.185000    0.000000
      9          6           0        0.000000    1.410000    0.000000
     10          1           0        0.000000    2.370000    0.000000
     11          6           0        1.221100    0.705000    0.000000
     12          1           0        2.052480    1.185000    0.000000
     13          6           0       -0.573500   -1.288100    4.000000
     14          1           0       -0.963970   -2.165100    4.000000
     15          6           0        0.828780   -1.140710    4.000000
     16          1           0        1.393050   -1.917370    4.000000
     17          6           0        1.402280    0.147390    4.000000
     18          1           0        2.357020    0.247730    4.000000
     19          6           0       -1.402280   -0.147390    4.000000
     20          1           0       -2.357020   -0.247730    4.000000
     21          6           0       -0.828780    1.140710    4.000000
     22          1           0       -1.393050    1.917370    4.000000
     23          6           0        0.573500    1.288100    4.000000
     24          1           0        0.963970    2.165100    4.000000
 ---------------------------------------------------------------------
                    Distance matrix (angstroms):
                    1          2          3          4          5
     1  C    0.000000
     2  H    0.959996   0.000000
     3  C    1.410004   2.064776   0.000000
     4  H    2.064778   2.370000   0.960000   0.000000
     5  C    2.442200   3.308584   1.410004   2.064778   0.000000
     6  H    3.308584   4.104960   2.064776   2.370000   0.959996
     7  C    1.410000   2.064774   2.442194   3.308581   2.820007
     8  H    2.064774   2.370000   3.308580   4.104960   3.780003
     9  C    2.442194   3.308580   2.820000   3.780000   2.442194
    10  H    3.308581   4.104960   3.780000   4.740000   3.308581
    11  C    2.820007   3.780003   2.442194   3.308581   1.410000
    12  H    3.780003   4.740000   3.308580   4.104960   2.064774
    13  C    4.093824   4.265913   4.042742   4.183230   4.422736
    14  H    4.265912   4.259748   4.183230   4.119614   4.786065
    15  C    4.515734   4.929870   4.093824   4.265915   4.042741
    16  H    4.929870   5.329920   4.265913   4.259749   4.183229
    17  C    4.858878   5.450746   4.515734   4.929872   4.093824
    18  H    5.450746   6.123431   4.929869   5.329921   4.265912
    19  C    4.042741   4.183228   4.422734   4.786061   4.815916
    20  H    4.183230   4.119614   4.786065   5.104858   5.386282
    21  C    4.422732   4.786060   4.815911   5.386275   4.858874
    22  H    4.786062   5.104855   5.386277   6.026784   5.450743
    23  C    4.815915   5.386278   4.858873   5.450743   4.515732
    24  H    5.386279   6.026785   5.450741   6.123428   4.929867
                    6          7          8          9         10
     6  H    0.000000
     7  C    3.780003   0.000000
     8  H    4.740000   0.959996   0.000000
     9  C    3.308580   1.410004   2.064776   0.000000
    10  H    4.104960   2.064778   2.370000   0.960000   0.000000
    11  C    2.064774   2.442200   3.308584   1.410004   2.064778
    12  H    2.370000   3.308584   4.104960   2.064776   2.370000
    13  C    4.786063   4.515732   4.929869   4.858873   5.450743
    14  H    5.104857   4.929867   5.329918   5.450741   6.123428
    15  C    4.183229   4.858874   5.450742   4.815911   5.386275
    16  H    4.119613   5.450743   6.123429   5.386277   6.026784
    17  C    4.265914   4.815916   5.386279   4.422734   4.786061
    18  H    4.259749   5.386282   6.026787   4.786065   5.104858
    19  C    5.386279   4.093824   4.265914   4.515734   4.929872
    20  H    6.026787   4.265912   4.259749   4.929869   5.329921
    21  C    5.450742   4.042741   4.183229   4.093824   4.265915
    22  H    6.123429   4.183229   4.119613   4.265913   4.259749
    23  C    4.929869   4.422736   4.786063   4.042742   4.183230
    24  H    5.329918   4.786065   5.104857   4.183230   4.119614
                   11         12         13         14         15
    11  C    0.000000
    12  H    0.959996   0.000000
    13  C    4.815915   5.386278   0.000000
    14  H    5.386279   6.026785   0.959998   0.000000
    15  C    4.422732   4.786060   1.410005   2.064783   0.000000
    16  H    4.786062   5.104855   2.064776   2.370003   0.960001
    17  C    4.042741   4.183228   2.442199   3.308587   1.410001
    18  H    4.183230   4.119614   3.308583   4.104963   2.064772
    19  C    4.858878   5.450746   1.409998   2.064769   2.442194
    20  H    5.450746   6.123431   2.064779   2.369999   3.308585
    21  C    4.515734   4.929870   2.442189   3.308573   2.819997
    22  H    4.929870   5.329920   3.308580   4.104957   3.779998
    23  C    4.093824   4.265913   2.820003   3.780001   2.442189
    24  H    4.265912   4.259748   3.780001   4.739998   3.308573
                   16         17         18         19         20
    16  H    0.000000
    17  C    2.064781   0.000000
    18  H    2.369999   0.959998   0.000000
    19  C    3.308580   2.820009   3.780007   0.000000
    20  H    4.104963   3.780007   4.740006   0.959998   0.000000
    21  C    3.779998   2.442194   3.308585   1.410001   2.064772
    22  H    4.739998   3.308580   4.104963   2.064781   2.369999
    23  C    3.308580   1.409998   2.064779   2.442199   3.308583
    24  H    4.104957   2.064769   2.369999   3.308587   4.104963
                   21         22         23         24
    21  C    0.000000
    22  H    0.960001   0.000000
    23  C    1.410005   2.064776   0.000000
    24  H    2.064783   2.370003   0.959998   0.000000
 Stoichiometry    C12H12
 Framework group  C2[X(C12H12)]
 Deg. of freedom    34
 Full point group                 C2      NOp   2
 Largest Abelian subgroup         C2      NOp   2
 Largest concise Abelian subgroup C2      NOp   2
                         Standard orientation:                         
 ---------------------------------------------------------------------
 Center     Atomic      Atomic             Coordinates (Angstroms)
 Number     Number       Type             X           Y           Z
 ---------------------------------------------------------------------
      1          6           0       -1.221100    0.705000    2.000000
      2          1           0       -2.052480    1.185000    2.000000
      3          6           0        0.000000    1.410000    2.000000
      4          1           0        0.000000    2.370000    2.000000
      5          6           0        1.221100    0.705000    2.000000
      6          1           0        2.052480    1.185000    2.000000
      7          6           0       -1.221100   -0.705000    2.000000
      8          1           0       -2.052480   -1.185000    2.000000
      9          6           0       -0.000000   -1.410000    2.000000
     10          1           0       -0.000000   -2.370000    2.000000
     11          6           0        1.221100   -0.705000    2.000000
     12          1           0        2.052480   -1.185000    2.000000
     13          6           0       -0.573500    1.288100   -2.000000
     14          1           0       -0.963970    2.165100   -2.000000
     15          6           0        0.828780    1.140710   -2.000000
     16          1           0        1.393050    1.917370   -2.000000
     17          6           0        1.402280   -0.147390   -2.000000
     18          1           0        2.357020   -0.247730   -2.000000
     19          6           0       -1.402280    0.147390   -2.000000
     20          1           0       -2.357020    0.247730   -2.000000
     21          6           0       -0.828780   -1.140710   -2.000000
     22          1           0       -1.393050   -1.917370   -2.000000
     23          6           0        0.573500   -1.288100   -2.000000
     24          1           0        0.963970   -2.165100   -2.000000
 ---------------------------------------------------------------------
 Rotational constants (GHZ):           1.4267480           0.6305543           0.6305534
 Standard basis: 6-31G(d) (6D, 7F)
 There are   102 symmetry adapted cartesian basis functions of A   symmetry.
 There are   102 symmetry adapted cartesian basis functions of B   symmetry.
 There are   102 symmetry adapted basis functions of A   symmetry.
 There are   102 symmetry adapted basis functions of B   symmetry.
   204 basis functions,   384 primitive gaussians,   204 cartesian basis functions
    42 alpha electrons       42 beta electrons
       nuclear repulsion energy       617.0511702192 Hartrees.
 NAtoms=   24 NActive=   24 NUniq=   12 SFac= 4.00D+00 NAtFMM=   60 NAOKFM=F Big=F
 Integral buffers will be    131072 words long.
 Raffenetti 2 integral format.
 Two-electron integral symmetry is turned on.
 Nuclear repulsion after empirical dispersion term =      617.0377741467 Hartrees.
 One-electron integrals computed using PRISM.
 NBasis=   204 RedAO= T EigKep=  5.22D-04  NBF=   102   102
 NBsUse=   204 1.00D-06 EigRej= -1.00D+00 NBFU=   102   102
 ExpMin= 1.61D-01 ExpMax= 3.05D+03 ExpMxC= 4.57D+02 IAcc=3 IRadAn=         5 AccDes= 0.00D+00
 Harris functional with IExCor= 4639 and IRadAn=       5 diagonalized for initial guess.
 HarFok:  IExCor= 4639 AccDes= 0.00D+00 IRadAn=         5 IDoV= 1 UseB2=F ITyADJ=14
 ICtDFT=  3500011 ScaDFX=  1.000000  1.000000  1.000000  1.000000
 FoFCou: FMM=F IPFlag=           0 FMFlag=      100000 FMFlg1=           0
         NFxFlg=           0 DoJE=T BraDBF=F KetDBF=T FulRan=T
         wScrn=  0.000000 ICntrl=       500 IOpCl=  0 I1Cent=   200000004 NGrid=           0
         NMat0=    1 NMatS0=      1 NMatT0=    0 NMatD0=    1 NMtDS0=    0 NMtDT0=    0
 Petite list used in FoFCou.
 Initial guess orbital symmetries:
       Occupied  (A) (A) (B) (B) (B) (B) (A) (A) (A) (A) (B) (B)
                 (A) (A) (B) (B) (B) (B) (A) (A) (A) (A) (A) (A)
                 (B) (B) (B) (B) (B) (B) (B) (B) (A) (A) (A) (A)
                 (A) (A) (B) (B) (B) (B)
       Virtual   (A) (A) (A) (A) (B) (B) (A) (A) (B) (B) (B) (B)
                 (A) (A) (A) (A) (B) (B) (B) (B) (B) (B) (A) (A)
                 (A) (A) (A) (B) (B) (A) (A) (B) (B) (A) (A) (B)
                 (B) (A) (A) (A) (A) (A) (A) (B) (B) (B) (B) (A)
                 (A) (A) (B) (B) (A) (A) (B) (B) (B) (B) (B) (B)
                 (A) (A) (B) (B) (A) (A) (A) (A) (B) (B) (B) (B)
                 (A) (A) (A) (A) (A) (A) (B) (B) (B) (B) (B) (B)
                 (B) (B) (A) (A) (A) (A) (A) (A) (B) (B) (B) (B)
                 (A) (A) (A) (A) (B) (A) (B) (A) (B) (A) (B) (A)
                 (A) (A) (A) (A) (B) (B) (A) (A) (B) (B) (B) (B)
                 (A) (A) (B) (B) (B) (B) (B) (B) (B) (B) (A) (A)
                 (A) (A) (A) (A) (B) (B) (B) (B) (A) (A) (A) (A)
                 (B) (B) (A) (A) (B) (B) (A) (B) (B) (A) (B) (B)
                 (A) (A) (A) (A) (B) (B)
 The electronic state of the initial guess is 1-A.
 Requested convergence on RMS density matrix=1.00D-08 within 128 cycles.
 Requested convergence on MAX density matrix=1.00D-06.
 Requested convergence on             energy=1.00D-06.
 No special actions if energy rises.
 Integral accuracy reduced to 1.0D-05 until final iterations.
 Initial convergence to 1.0D-05 achieved.  Increase integral accuracy.
 SCF Done:  E(RwB97XD) =  -464.168532769     A.U. after   11 cycles
            NFock= 11  Conv=0.40D-08     -V/T= 2.0050

 **********************************************************************

            Population analysis using the SCF density.

 **********************************************************************

 Orbital symmetries:
       Occupied  (A) (A) (B) (B) (B) (B) (A) (A) (A) (A) (B) (B)
                 (A) (A) (B) (B) (B) (B) (A) (A) (A) (A) (A) (A)
                 (B) (B) (B) (B) (B) (B) (B) (B) (A) (A) (A) (A)
                 (A) (A) (B) (B) (B) (B)
       Virtual   (A) (A) (A) (A) (A) (A) (B) (B) (B) (B) (B) (B)
                 (A) (A) (A) (A) (B) (B) (B) (B) (A) (A) (B) (B)
                 (A) (A) (A) (B) (B) (A) (B) (B) (A) (B) (A) (B)
                 (A) (A) (A) (A) (A) (A) (A) (B) (B) (B) (B) (A)
                 (A) (A) (B) (B) (A) (A) (B) (B) (B) (B) (B) (B)
                 (B) (B) (A) (A) (A) (A) (A) (A) (B) (B) (B) (B)
                 (A) (A) (A) (A) (A) (A) (B) (B) (B) (B) (B) (B)
                 (B) (B) (A) (A) (A) (A) (A) (A) (A) (A) (B) (B)
                 (B) (B) (A) (A) (A) (A) (B) (B) (B) (B) (A) (A)
                 (A) (A) (A) (A) (B) (B) (A) (A) (B) (B) (A) (A)
                 (B) (B) (B) (B) (B) (B) (B) (B) (B) (B) (A) (A)
                 (A) (A) (A) (A) (B) (B) (B) (B) (A) (A) (A) (A)
                 (B) (B) (A) (A) (B) (B) (A) (B) (B) (A) (B) (B)
                 (A) (A) (A) (A) (B) (B)
 The electronic state is 1-A.
 Alpha  occ. eigenvalues --  -10.27984 -10.27984 -10.27960 -10.27960 -10.27959
 Alpha  occ. eigenvalues --  -10.27959 -10.27908 -10.27907 -10.27907 -10.27907
 Alpha  occ. eigenvalues --  -10.27883 -10.27883  -0.93687  -0.93550  -0.84025
 Alpha  occ. eigenvalues --   -0.84025  -0.83908  -0.83908  -0.70423  -0.70423
 Alpha  occ. eigenvalues --   -0.70330  -0.70330  -0.62389  -0.62300  -0.58369
 Alpha  occ. eigenvalues --   -0.58343  -0.51107  -0.51093  -0.50945  -0.50945
 Alpha  occ. eigenvalues --   -0.50883  -0.50882  -0.44236  -0.42570  -0.42454
 Alpha  occ. eigenvalues --   -0.42454  -0.42438  -0.42438  -0.31795  -0.31795
 Alpha  occ. eigenvalues --   -0.30319  -0.30319
 Alpha virt. eigenvalues --    0.07127   0.07128   0.08638   0.08639   0.21776
 Alpha virt. eigenvalues --    0.22834   0.24603   0.25026   0.26383   0.26383
 Alpha virt. eigenvalues --    0.27617   0.27617   0.28595   0.28595   0.29563
 Alpha virt. eigenvalues --    0.29563   0.31588   0.31984   0.39599   0.39599
 Alpha virt. eigenvalues --    0.39661   0.39661   0.39729   0.39729   0.40119
 Alpha virt. eigenvalues --    0.40119   0.54783   0.56910   0.57451   0.61901
 Alpha virt. eigenvalues --    0.62604   0.62604   0.63897   0.64204   0.64342
 Alpha virt. eigenvalues --    0.64501   0.64605   0.65425   0.67153   0.68034
 Alpha virt. eigenvalues --    0.68035   0.70502   0.70502   0.71652   0.71652
 Alpha virt. eigenvalues --    0.72537   0.72537   0.73611   0.73612   0.78118
 Alpha virt. eigenvalues --    0.81523   0.81524   0.82916   0.82917   0.83703
 Alpha virt. eigenvalues --    0.86492   0.98745   0.99117   1.01568   1.01568
 Alpha virt. eigenvalues --    1.03404   1.03405   1.03851   1.03851   1.04521
 Alpha virt. eigenvalues --    1.04521   1.05980   1.06735   1.07044   1.07045
 Alpha virt. eigenvalues --    1.08687   1.08687   1.13802   1.14063   1.14064
 Alpha virt. eigenvalues --    1.15852   1.18185   1.18185   1.21483   1.21483
 Alpha virt. eigenvalues --    1.25247   1.25247   1.31366   1.33240   1.35530
 Alpha virt. eigenvalues --    1.35553   1.47843   1.47911   1.57113   1.57114
 Alpha virt. eigenvalues --    1.57302   1.57302   1.57889   1.57890   1.59219
 Alpha virt. eigenvalues --    1.59219   1.59444   1.59444   1.62821   1.62822
 Alpha virt. eigenvalues --    1.84806   1.86564   1.86645   1.87033   2.06097
 Alpha virt. eigenvalues --    2.08785   2.10856   2.12627   2.14757   2.14757
 Alpha virt. eigenvalues --    2.15991   2.15992   2.19361   2.19361   2.21542
 Alpha virt. eigenvalues --    2.21543   2.23101   2.23101   2.24406   2.24406
 Alpha virt. eigenvalues --    2.24633   2.24633   2.27141   2.27141   2.38060
 Alpha virt. eigenvalues --    2.38615   2.38615   2.38990   2.39567   2.39568
 Alpha virt. eigenvalues --    2.65177   2.65177   2.69160   2.69160   2.72360
 Alpha virt. eigenvalues --    2.72360   2.79384   2.79384   2.80016   2.80017
 Alpha virt. eigenvalues --    2.87937   2.87937   2.88149   2.88149   2.88764
 Alpha virt. eigenvalues --    2.91932   3.08669   3.09117   3.58238   3.58862
 Alpha virt. eigenvalues --    4.18756   4.22087   4.22087   4.24123   4.29287
 Alpha virt. eigenvalues --    4.29288   4.44303   4.44304   4.49467   4.49467
 Alpha virt. eigenvalues --    4.78707   4.80758
          Condensed to atoms (all electrons):
               1          2          3          4          5          6
     1  C    4.847572   0.385672   0.549859  -0.048561  -0.028751   0.005269
     2  H    0.385672   0.561695  -0.048557  -0.006270   0.005268  -0.000215
     3  C    0.549859  -0.048557   4.847734   0.385679   0.549865  -0.048564
     4  H   -0.048561  -0.006270   0.385679   0.561684  -0.048554  -0.006271
     5  C   -0.028751   0.005268   0.549865  -0.048554   4.847591   0.385672
     6  H    0.005269  -0.000215  -0.048564  -0.006271   0.385672   0.561695
     7  C    0.549852  -0.048565  -0.028736   0.005269  -0.038322   0.000468
     8  H   -0.048557  -0.006269   0.005268  -0.000215   0.000468   0.000020
     9  C   -0.028738   0.005269  -0.038329   0.000468  -0.028736   0.005268
    10  H    0.005268  -0.000215   0.000468   0.000020   0.005269  -0.000215
    11  C   -0.038322   0.000468  -0.028738   0.005268   0.549852  -0.048557
    12  H    0.000468   0.000020   0.005269  -0.000215  -0.048565  -0.006269
    13  C    0.000283   0.000007   0.000355   0.000013  -0.000001   0.000000
    14  H    0.000007   0.000003   0.000013   0.000008   0.000000  -0.000000
    15  C   -0.000020  -0.000000   0.000284   0.000007   0.000354   0.000013
    16  H   -0.000000  -0.000000   0.000007   0.000003   0.000013   0.000008
    17  C   -0.000035  -0.000000  -0.000020  -0.000000   0.000284   0.000007
    18  H   -0.000000  -0.000000  -0.000000  -0.000000   0.000007   0.000003
    19  C    0.000354   0.000013  -0.000001   0.000000  -0.000035  -0.000001
    20  H    0.000013   0.000008   0.000000  -0.000000  -0.000001  -0.000000
    21  C   -0.000001   0.000000  -0.000035  -0.000001  -0.000034  -0.000000
    22  H    0.000000  -0.000000  -0.000001  -0.000000  -0.000000  -0.000000
    23  C   -0.000035  -0.000001  -0.000035  -0.000000  -0.000020  -0.000000
    24  H   -0.000001  -0.000000  -0.000000  -0.000000  -0.000000  -0.000000
               7          8          9         10         11         12
     1  C    0.549852  -0.048557  -0.028738   0.005268  -0.038322   0.000468
     2  H   -0.048565  -0.006269   0.005269  -0.000215   0.000468   0.000020
     3  C   -0.028736   0.005268  -0.038329   0.000468  -0.028738   0.005269
     4  H    0.005269  -0.000215   0.000468   0.000020   0.005268  -0.000215
     5  C   -0.038322   0.000468  -0.028736   0.005269   0.549852  -0.048565
     6  H    0.000468   0.000020   0.005268  -0.000215  -0.048557  -0.006269
     7  C    4.847591   0.385672   0.549865  -0.048554  -0.028751   0.005268
     8  H    0.385672   0.561695  -0.048564  -0.006271   0.005269  -0.000215
     9  C    0.549865  -0.048564   4.847734   0.385679   0.549859  -0.048557
    10  H   -0.048554  -0.006271   0.385679   0.561684  -0.048561  -0.006270
    11  C   -0.028751   0.005269   0.549859  -0.048561   4.847572   0.385672
    12  H    0.005268  -0.000215  -0.048557  -0.006270   0.385672   0.561695
    13  C   -0.000020  -0.000000  -0.000035  -0.000000  -0.000035  -0.000001
    14  H   -0.000000  -0.000000  -0.000000  -0.000000  -0.000001  -0.000000
    15  C   -0.000034  -0.000000  -0.000035  -0.000001  -0.000001   0.000000
    16  H   -0.000000  -0.000000  -0.000001  -0.000000   0.000000  -0.000000
    17  C   -0.000035  -0.000001  -0.000001   0.000000   0.000354   0.000013
    18  H   -0.000001  -0.000000   0.000000  -0.000000   0.000013   0.000008
    19  C    0.000284   0.000007  -0.000020  -0.000000  -0.000035  -0.000000
    20  H    0.000007   0.000003  -0.000000  -0.000000  -0.000000  -0.000000
    21  C    0.000354   0.000013   0.000284   0.000007  -0.000020  -0.000000
    22  H    0.000013   0.000008   0.000007   0.000003  -0.000000  -0.000000
    23  C   -0.000001   0.000000   0.000355   0.000013   0.000283   0.000007
    24  H    0.000000  -0.000000   0.000013   0.000008   0.000007   0.000003
              13         14         15         16         17         18
     1  C    0.000283   0.000007  -0.000020  -0.000000  -0.000035  -0.000000
     2  H    0.000007   0.000003  -0.000000  -0.000000  -0.000000  -0.000000
     3  C    0.000355   0.000013   0.000284   0.000007  -0.000020  -0.000000
     4  H    0.000013   0.000008   0.000007   0.000003  -0.000000  -0.000000
     5  C   -0.000001   0.000000   0.000354   0.000013   0.000284   0.000007
     6  H    0.000000  -0.000000   0.000013   0.000008   0.000007   0.000003
     7  C   -0.000020  -0.000000  -0.000034  -0.000000  -0.000035  -0.000001
     8  H   -0.000000  -0.000000  -0.000000  -0.000000  -0.000001  -0.000000
     9  C   -0.000035  -0.000000  -0.000035  -0.000001  -0.000001   0.000000
    10  H   -0.000000  -0.000000  -0.000001  -0.000000   0.000000  -0.000000
    11  C   -0.000035  -0.000001  -0.000001   0.000000   0.000354   0.000013
    12  H   -0.000001  -0.000000   0.000000  -0.000000   0.000013   0.000008
    13  C    4.847603   0.385669   0.549854  -0.048558  -0.028732   0.005269
    14  H    0.385669   0.561694  -0.048564  -0.006270   0.005269  -0.000215
    15  C    0.549854  -0.048564   4.847563   0.385672   0.549868  -0.048555
    16  H   -0.048558  -0.006270   0.385672   0.561702  -0.048564  -0.006271
    17  C   -0.028732   0.005269   0.549868  -0.048564   4.847725   0.385678
    18  H    0.005269  -0.000215  -0.048555  -0.006271   0.385678   0.561687
    19  C    0.549851  -0.048558  -0.028738   0.005269  -0.038328   0.000468
    20  H   -0.048562  -0.006270   0.005269  -0.000215   0.000468   0.000020
    21  C   -0.028749   0.005268  -0.038318   0.000468  -0.028738   0.005269
    22  H    0.005270  -0.000215   0.000468   0.000020   0.005269  -0.000215
    23  C   -0.038324   0.000468  -0.028749   0.005270   0.549851  -0.048562
    24  H    0.000468   0.000020   0.005268  -0.000215  -0.048558  -0.006270
              19         20         21         22         23         24
     1  C    0.000354   0.000013  -0.000001   0.000000  -0.000035  -0.000001
     2  H    0.000013   0.000008   0.000000  -0.000000  -0.000001  -0.000000
     3  C   -0.000001   0.000000  -0.000035  -0.000001  -0.000035  -0.000000
     4  H    0.000000  -0.000000  -0.000001  -0.000000  -0.000000  -0.000000
     5  C   -0.000035  -0.000001  -0.000034  -0.000000  -0.000020  -0.000000
     6  H   -0.000001  -0.000000  -0.000000  -0.000000  -0.000000  -0.000000
     7  C    0.000284   0.000007   0.000354   0.000013  -0.000001   0.000000
     8  H    0.000007   0.000003   0.000013   0.000008   0.000000  -0.000000
     9  C   -0.000020  -0.000000   0.000284   0.000007   0.000355   0.000013
    10  H   -0.000000  -0.000000   0.000007   0.000003   0.000013   0.000008
    11  C   -0.000035  -0.000000  -0.000020  -0.000000   0.000283   0.000007
    12  H   -0.000000  -0.000000  -0.000000  -0.000000   0.000007   0.000003
    13  C    0.549851  -0.048562  -0.028749   0.005270  -0.038324   0.000468
    14  H   -0.048558  -0.006270   0.005268  -0.000215   0.000468   0.000020
    15  C   -0.028738   0.005269  -0.038318   0.000468  -0.028749   0.005268
    16  H    0.005269  -0.000215   0.000468   0.000020   0.005270  -0.000215
    17  C   -0.038328   0.000468  -0.028738   0.005269   0.549851  -0.048558
    18  H    0.000468   0.000020   0.005269  -0.000215  -0.048562  -0.006270
    19  C    4.847725   0.385678   0.549868  -0.048564  -0.028732   0.005269
    20  H    0.385678   0.561687  -0.048555  -0.006271   0.005269  -0.000215
    21  C    0.549868  -0.048555   4.847563   0.385672   0.549854  -0.048564
    22  H   -0.048564  -0.006271   0.385672   0.561702  -0.048558  -0.006270
    23  C   -0.028732   0.005269   0.549854  -0.048558   4.847603   0.385669
    24  H    0.005269  -0.000215  -0.048564  -0.006270   0.385669   0.561694
 Mulliken charges:
               1
     1  C   -0.151598
     2  H    0.151670
     3  C   -0.151784
     4  H    0.151668
     5  C   -0.151624
     6  H    0.151669
     7  C   -0.151624
     8  H    0.151669
     9  C   -0.151784
    10  H    0.151668
    11  C   -0.151598
    12  H    0.151670
    13  C   -0.151626
    14  H    0.151675
    15  C   -0.151605
    16  H    0.151663
    17  C   -0.151776
    18  H    0.151669
    19  C   -0.151776
    20  H    0.151669
    21  C   -0.151605
    22  H    0.151663
    23  C   -0.151626
    24  H    0.151675
 Sum of Mulliken charges =  -0.00000
 Mulliken charges with hydrogens summed into heavy atoms:
               1
     1  C    0.000072
     3  C   -0.000117
     5  C    0.000044
     7  C    0.000044
     9  C   -0.000117
    11  C    0.000072
    13  C    0.000049
    15  C    0.000058
    17  C   -0.000107
    19  C   -0.000107
    21  C    0.000058
    23  C    0.000049
 Electronic spatial extent (au):  <R**2>=           2099.5598
 Charge=             -0.0000 electrons
 Dipole moment (field-independent basis, Debye):
    X=              0.0000    Y=              0.0000    Z=             -0.0000  Tot=              0.0000
 Quadrupole moment (field-independent basis, Debye-Ang):
   XX=            -60.9846   YY=            -60.9848   ZZ=            -76.8363
   XY=              0.0001   XZ=              0.0000   YZ=             -0.0000
 Traceless Quadrupole moment (field-independent basis, Debye-Ang):
   XX=              5.2840   YY=              5.2837   ZZ=            -10.5677
   XY=              0.0001   XZ=              0.0000   YZ=             -0.0000
 Octapole moment (field-independent basis, Debye-Ang**2):
  XXX=             -0.0000  YYY=              0.0000  ZZZ=              0.0001  XYY=              0.0000
  XXY=             -0.0000  XXZ=              0.0011  XZZ=              0.0000  YZZ=             -0.0000
  YYZ=             -0.0011  XYZ=             -0.0004
 Hexadecapole moment (field-independent basis, Debye-Ang**3):
 XXXX=           -511.7946 YYYY=           -511.7933 ZZZZ=          -1914.3312 XXXY=              0.0004
 XXXZ=             -0.0000 YYYX=              0.0006 YYYZ=             -0.0000 ZZZX=              0.0000
 ZZZY=             -0.0000 XXYY=           -170.5976 XXZZ=           -359.3395 YYZZ=           -359.3401
 XXYZ=              0.0000 YYXZ=             -0.0000 ZZXY=              0.0005
 N-N= 6.170377741467D+02 E-N=-2.310440766672D+03  KE= 4.618686097221D+02
 Symmetry A    KE= 2.279062474634D+02
 Symmetry B    KE= 2.339623622587D+02
 1\1\GINC-PADAWAN-42\SP\RwB97XD\6-31G(d)\C12H12\PADAWAN\23-Mar-2022\0\\
 #n wB97xd/6-31G(d) SP\\Title\\0,1\C,0,-1.2211,-0.705,0.\H,0,-2.05248,-
 1.185,0.\C,0,0.,-1.41,0.\H,0,0.,-2.37,0.\C,0,1.2211,-0.705,0.\H,0,2.05
 248,-1.185,0.\C,0,-1.2211,0.705,0.\H,0,-2.05248,1.185,0.\C,0,0.,1.41,0
 .\H,0,0.,2.37,0.\C,0,1.2211,0.705,0.\H,0,2.05248,1.185,0.\C,0,-0.5735,
 -1.2881,4.\H,0,-0.96397,-2.1651,4.\C,0,0.82878,-1.14071,4.\H,0,1.39305
 ,-1.91737,4.\C,0,1.40228,0.14739,4.\H,0,2.35702,0.24773,4.\C,0,-1.4022
 8,-0.14739,4.\H,0,-2.35702,-0.24773,4.\C,0,-0.82878,1.14071,4.\H,0,-1.
 39305,1.91737,4.\C,0,0.5735,1.2881,4.\H,0,0.96397,2.1651,4.\\Version=E
 S64L-G16RevA.03\State=1-A\HF=-464.1685328\RMSD=4.046e-09\Dipole=0.,0.,
 0.0000098\Quadrupole=3.9284902,3.9283299,-7.8568201,-0.000063,0.,0.\PG
 =C02 [X(C12H12)]\\@


 DIATOMIC MOLECULES ARE PECULIAR BECAUSE THEY ONLY HAVE TWO ENDS,
 AND THESE ENDS ARE VERY CLOSE TOGETHER.
 KLAUS RUEDENBERG, REV.MOD.PHYS. PG 176, 32, (1960)
 Job cpu time:       0 days  0 hours  3 minutes 24.1 seconds.
 Elapsed time:       0 days  0 hours  0 minutes  6.9 seconds.
 File lengths (MBytes):  RWF=     26 Int=      0 D2E=      0 Chk=      4 Scr=      1
 Normal termination of Gaussian 16 at Wed Mar 23 15:16:17 2022.
