 Entering Gaussian System, Link 0=g16
 Input=Naphthalene90y.com
 Output=Naphthalene90y.log
 Initial command:
 /usr/local/g16/l1.exe "/home/padawan/Ingrid/Naphthalene/Gau-6425.inp" -scrdir="/home/padawan/Ingrid/Naphthalene/"
 Entering Link 1 = /usr/local/g16/l1.exe PID=      6427.
  
 Copyright (c) 1988-2017, Gaussian, Inc.  All Rights Reserved.
  
 This is part of the Gaussian(R) 16 program.  It is based on
 the Gaussian(R) 09 system (copyright 2009, Gaussian, Inc.),
 the Gaussian(R) 03 system (copyright 2003, Gaussian, Inc.),
 the Gaussian(R) 98 system (copyright 1998, Gaussian, Inc.),
 the Gaussian(R) 94 system (copyright 1995, Gaussian, Inc.),
 the Gaussian 92(TM) system (copyright 1992, Gaussian, Inc.),
 the Gaussian 90(TM) system (copyright 1990, Gaussian, Inc.),
 the Gaussian 88(TM) system (copyright 1988, Gaussian, Inc.),
 the Gaussian 86(TM) system (copyright 1986, Carnegie Mellon
 University), and the Gaussian 82(TM) system (copyright 1983,
 Carnegie Mellon University). Gaussian is a federally registered
 trademark of Gaussian, Inc.
  
 This software contains proprietary and confidential information,
 including trade secrets, belonging to Gaussian, Inc.
  
 This software is provided under written license and may be
 used, copied, transmitted, or stored only in accord with that
 written license.
  
 The following legend is applicable only to US Government
 contracts under FAR:
  
                    RESTRICTED RIGHTS LEGEND
  
 Use, reproduction and disclosure by the US Government is
 subject to restrictions as set forth in subparagraphs (a)
 and (c) of the Commercial Computer Software - Restricted
 Rights clause in FAR 52.227-19.
  
 Gaussian, Inc.
 340 Quinnipiac St., Bldg. 40, Wallingford CT 06492
  
  
 ---------------------------------------------------------------
 Warning -- This program may not be used in any manner that
 competes with the business of Gaussian, Inc. or will provide
 assistance to any competitor of Gaussian, Inc.  The licensee
 of this program is prohibited from giving any competitor of
 Gaussian, Inc. access to this program.  By using this program,
 the user acknowledges that Gaussian, Inc. is engaged in the
 business of creating and licensing software in the field of
 computational chemistry and represents and warrants to the
 licensee that it is not a competitor of Gaussian, Inc. and that
 it will not use this program in any manner prohibited above.
 ---------------------------------------------------------------
  

 Cite this work as:
 Gaussian 16, Revision B.01,
 M. J. Frisch, G. W. Trucks, H. B. Schlegel, G. E. Scuseria, 
 M. A. Robb, J. R. Cheeseman, G. Scalmani, V. Barone, 
 G. A. Petersson, H. Nakatsuji, X. Li, M. Caricato, A. V. Marenich, 
 J. Bloino, B. G. Janesko, R. Gomperts, B. Mennucci, H. P. Hratchian, 
 J. V. Ortiz, A. F. Izmaylov, J. L. Sonnenberg, D. Williams-Young, 
 F. Ding, F. Lipparini, F. Egidi, J. Goings, B. Peng, A. Petrone, 
 T. Henderson, D. Ranasinghe, V. G. Zakrzewski, J. Gao, N. Rega, 
 G. Zheng, W. Liang, M. Hada, M. Ehara, K. Toyota, R. Fukuda, 
 J. Hasegawa, M. Ishida, T. Nakajima, Y. Honda, O. Kitao, H. Nakai, 
 T. Vreven, K. Throssell, J. A. Montgomery, Jr., J. E. Peralta, 
 F. Ogliaro, M. J. Bearpark, J. J. Heyd, E. N. Brothers, K. N. Kudin, 
 V. N. Staroverov, T. A. Keith, R. Kobayashi, J. Normand, 
 K. Raghavachari, A. P. Rendell, J. C. Burant, S. S. Iyengar, 
 J. Tomasi, M. Cossi, J. M. Millam, M. Klene, C. Adamo, R. Cammi, 
 J. W. Ochterski, R. L. Martin, K. Morokuma, O. Farkas, 
 J. B. Foresman, and D. J. Fox, Gaussian, Inc., Wallingford CT, 2016.
 
 ******************************************
 Gaussian 16:  EM64L-G16RevB.01 20-Dec-2017
                30-May-2022 
 ******************************************
 %nproc=30
 Will use up to   30 processors via shared memory.
 %mem=28GB
 %Chk=Naphthalene90y.chk
 ---------------------
 #n wB97xd/6-31G(d) SP
 ---------------------
 1/38=1,172=1/1;
 2/12=2,17=6,18=5,40=1/2;
 3/5=1,6=6,7=1,11=2,25=1,30=1,74=-58/1,2,3;
 4//1;
 5/5=2,38=5/2;
 6/7=2,8=2,9=2,10=2,28=1/1;
 99/5=1,9=1/99;
 -----
 Title
 -----
 Symbolic Z-matrix:
 Charge =  0 Multiplicity = 1
 C                     2.4044    0.7559    0. 
 C                     2.4328   -0.6584    0. 
 C                     1.2672   -1.3753    0. 
 C                     0.0142   -0.705     0. 
 C                    -0.0142    0.7048    0. 
 C                     1.2108    1.4252    0. 
 C                    -1.2672    1.3754    0. 
 C                    -2.4328    0.6585    0. 
 C                    -2.4043   -0.7558    0. 
 C                    -1.2108   -1.4254    0. 
 H                     3.3509    1.3062    0. 
 H                     3.4006   -1.1703    0. 
 H                     1.281    -2.471     0. 
 H                     1.1803    2.5206    0. 
 H                    -1.2808    2.471     0. 
 H                    -3.4008    1.1701    0. 
 H                    -3.3508   -1.306     0. 
 H                    -1.1805   -2.5207    0. 
 C                     0.00001   0.7559    1.59561 
 C                     0.00001  -0.6584    1.56721 
 C                     0.00001  -1.3753    2.73281 
 C                     0.00001  -0.705     3.98581 
 C                     0.00001   0.7048    4.01421 
 C                     0.00001   1.4252    2.78921 
 C                     0.00001   1.3754    5.26721 
 C                     0.00001   0.6585    6.43281 
 C                     0.00001  -0.7558    6.40431 
 C                     0.00001  -1.4254    5.21081 
 H                     0.00001   1.3062    0.64911 
 H                     0.00001  -1.1703    0.59941 
 H                     0.00001  -2.471     2.71901 
 H                     0.00001   2.5206    2.81971 
 H                     0.00001   2.471     5.28081 
 H                     0.00001   1.1701    7.40081 
 H                     0.00001  -1.306     7.35081 
 H                     0.00001  -2.5207    5.18051 
 
                          Input orientation:                          
 ---------------------------------------------------------------------
 Center     Atomic      Atomic             Coordinates (Angstroms)
 Number     Number       Type             X           Y           Z
 ---------------------------------------------------------------------
      1          6           0        2.404400    0.755900    0.000000
      2          6           0        2.432800   -0.658400    0.000000
      3          6           0        1.267200   -1.375300    0.000000
      4          6           0        0.014200   -0.705000    0.000000
      5          6           0       -0.014200    0.704800    0.000000
      6          6           0        1.210800    1.425200    0.000000
      7          6           0       -1.267200    1.375400    0.000000
      8          6           0       -2.432800    0.658500    0.000000
      9          6           0       -2.404300   -0.755800    0.000000
     10          6           0       -1.210800   -1.425400    0.000000
     11          1           0        3.350900    1.306200    0.000000
     12          1           0        3.400600   -1.170300    0.000000
     13          1           0        1.281000   -2.471000    0.000000
     14          1           0        1.180300    2.520600    0.000000
     15          1           0       -1.280800    2.471000    0.000000
     16          1           0       -3.400800    1.170100    0.000000
     17          1           0       -3.350800   -1.306000    0.000000
     18          1           0       -1.180500   -2.520700    0.000000
     19          6           0        0.000010    0.755900    1.595610
     20          6           0        0.000010   -0.658400    1.567210
     21          6           0        0.000010   -1.375300    2.732810
     22          6           0        0.000010   -0.705000    3.985810
     23          6           0        0.000010    0.704800    4.014210
     24          6           0        0.000010    1.425200    2.789210
     25          6           0        0.000010    1.375400    5.267210
     26          6           0        0.000010    0.658500    6.432810
     27          6           0        0.000010   -0.755800    6.404310
     28          6           0        0.000010   -1.425400    5.210810
     29          1           0        0.000010    1.306200    0.649110
     30          1           0        0.000010   -1.170300    0.599410
     31          1           0        0.000010   -2.471000    2.719010
     32          1           0        0.000010    2.520600    2.819710
     33          1           0        0.000010    2.471000    5.280810
     34          1           0        0.000010    1.170100    7.400810
     35          1           0        0.000010   -1.306000    7.350810
     36          1           0        0.000010   -2.520700    5.180510
 ---------------------------------------------------------------------
                    Distance matrix (angstroms):
                    1          2          3          4          5
     1  C    0.000000
     2  C    1.414585   0.000000
     3  C    2.415624   1.368418   0.000000
     4  C    2.801301   2.419049   1.421025   0.000000
     5  C    2.419140   2.801093   2.443113   1.410086   0.000000
     6  C    1.368446   2.415507   2.801068   2.443277   1.421127
     7  C    3.723497   4.222125   3.740259   2.443369   1.421166
     8  C    4.838181   5.040664   4.222125   2.801239   2.419043
     9  C    5.040717   4.838081   3.723398   2.419033   2.801059
    10  C    4.222291   3.723454   2.478506   1.421127   2.443277
    11  H    1.094848   2.168539   3.395916   3.895958   3.418418
    12  H    2.168562   1.094842   2.143227   3.418217   3.895749
    13  H    3.416857   2.147594   1.095787   2.173370   3.429759
    14  H    2.147693   3.416840   3.896869   3.429910   2.173467
    15  H    4.064759   4.856333   4.613711   3.429869   2.173416
    16  H    5.819958   6.113452   5.316887   3.895924   3.418415
    17  H    6.113408   5.819744   4.618520   3.418249   3.895666
    18  H    4.856708   4.064984   2.702439   2.173494   3.429884
    19  C    2.885665   3.234916   2.948517   2.163424   1.596491
    20  C    3.199607   2.893893   2.139127   1.567967   2.077177
    21  C    4.217980   3.728359   3.012312   2.813850   3.434424
    22  C    4.878729   4.669831   4.235771   3.985835   4.227815
    23  C    4.679485   4.887808   4.695367   4.254600   4.014235
    24  C    3.742826   4.247299   4.150694   3.509650   2.880776
    25  C    5.823090   6.148033   6.075823   5.663194   5.309746
    26  C    6.868160   7.002409   6.864631   6.575742   6.432992
    27  C    7.005820   6.851506   6.557800   6.404527   6.568770
    28  C    6.139357   5.801663   5.362912   5.260391   5.629431
    29  H    2.550542   3.193660   3.036043   2.113403   0.885002
    30  H    3.138571   2.557303   1.416717   0.758945   1.968628
    31  H    4.856644   4.073942   3.193641   3.242217   4.180780
    32  H    4.104391   4.896455   4.973386   4.284327   3.353818
    33  H    6.050588   6.602921   6.654829   6.162315   5.568359
    34  H    7.792602   8.002116   7.928229   7.634670   7.415436
    35  H    8.004182   7.769959   7.459556   7.375352   7.620887
    36  H    6.584442   6.018664   5.454851   5.489504   6.102601
                    6          7          8          9         10
     6  C    0.000000
     7  C    2.478500   0.000000
     8  C    3.723392   1.368418   0.000000
     9  C    4.222050   2.415577   1.414587   0.000000
    10  C    3.740330   2.801368   2.415766   1.368505   0.000000
    11  H    2.143406   4.618618   5.819854   6.113442   5.317024
    12  H    3.395857   5.316855   6.113351   5.819680   4.618451
    13  H    3.896832   4.613905   4.856550   4.064892   2.702285
    14  H    1.095825   2.702173   4.064715   4.856352   4.613922
    15  H    2.702178   1.095684   2.147617   3.416795   3.897029
    16  H    4.618650   2.143454   1.094878   2.168433   3.395986
    17  H    5.316733   3.395776   2.168406   1.094798   2.143328
    18  H    4.613940   3.897065   3.416953   2.147687   1.095719
    19  C    2.111858   2.129688   2.911017   3.257593   2.961436
    20  C    2.874639   2.863269   3.179456   2.871644   2.123793
    21  C    4.095981   4.079267   4.186067   3.692254   2.989452
    22  C    4.678723   4.671249   4.864605   4.655101   4.227496
    23  C    4.254277   4.262559   4.694102   4.901830   4.702945
    24  C    3.040675   3.063983   3.779694   4.279855   4.167934
    25  C    5.404812   5.417501   5.846025   6.169783   6.087203
    26  C    6.590515   6.595514   6.877471   7.011562   6.869479
    27  C    6.872988   6.867534   6.995284   6.840752   6.552069
    28  C    6.061722   6.050028   6.116678   5.777682   5.349636
    29  H    1.378955   1.425466   2.599889   3.233248   3.057621
    30  H    2.926077   2.906149   3.101994   2.512331   1.374929
    31  H    4.902999   4.877871   4.806802   4.014428   3.154735
    32  H    3.258324   3.296675   4.163742   4.946339   4.998774
    33  H    5.517850   5.540137   6.090211   6.639269   6.673451
    34  H    7.503538   7.511322   7.807195   8.016345   7.935658
    35  H    7.934726   7.926546   7.988256   7.753569   7.450820
    36  H    6.623732   6.604779   6.547027   5.977731   5.431706
                   11         12         13         14         15
    11  H    0.000000
    12  H    2.476999   0.000000
    13  H    4.307171   2.486870   0.000000
    14  H    2.487222   4.307258   4.992616   0.000000
    15  H    4.775919   5.930815   5.566523   2.461600   0.000000
    16  H    6.753072   7.192810   5.931008   4.776016   2.487316
    17  H    7.192800   6.752764   4.776065   5.930745   4.307044
    18  H    5.931168   4.775988   2.462002   5.566694   4.992708
    19  C    3.751968   4.221401   3.820967   2.655790   2.669834
    20  C    4.188587   3.779180   2.717094   3.735676   3.726898
    21  C    5.087942   4.367412   3.210879   4.902996   4.889044
    22  C    5.582121   5.259962   4.543828   5.261584   5.254915
    23  C    5.263462   5.585149   5.276412   4.561151   4.568787
    24  C    4.361458   5.106890   4.959940   3.220664   3.242509
    25  C    6.243137   6.766691   6.646746   5.517977   5.530309
    26  C    7.282103   7.502637   7.267445   6.800114   6.804901
    27  C    7.516348   7.262989   6.752632   7.289929   7.284772
    28  C    6.770720   6.227490   5.466878   6.642028   6.631361
    29  H    3.413181   4.256572   4.040980   1.813614   1.848939
    30  H    4.209609   3.453014   1.921470   3.921112   3.906256
    31  H    5.734869   4.544100   3.005653   5.805357   5.784190
    32  H    4.544667   5.756520   5.874331   3.056771   3.097370
    33  H    6.361775   7.260168   7.345152   5.411331   5.433915
    34  H    8.125206   8.474283   8.346888   7.615046   7.622651
    35  H    8.490375   8.100422   7.551991   8.370804   8.363050
    36  H    7.260256   6.342340   5.336768   7.324307   7.307204
                   16         17         18         19         20
    16  H    0.000000
    17  H    2.476605   0.000000
    18  H    4.307173   2.487106   0.000000
    19  C    3.779291   4.245625   3.830885   0.000000
    20  C    4.167141   3.755457   2.705164   1.414585   0.000000
    21  C    5.051022   4.324463   3.189639   2.415624   1.368418
    22  C    5.564907   5.241737   4.536194   2.801301   2.419049
    23  C    5.281656   5.602243   5.283118   2.419140   2.801093
    24  C    4.405710   5.144616   4.974276   1.368446   2.415507
    25  C    6.273050   6.794213   6.657079   3.723497   4.222125
    26  C    7.294401   7.514535   7.271998   4.838181   5.040664
    27  C    7.502652   7.248851   6.747123   5.040717   4.838081
    28  C    6.742008   6.196348   5.453973   4.222291   3.723454
    29  H    3.464877   4.298007   4.057106   1.094848   2.168539
    30  H    4.171603   3.406704   1.891157   2.168562   1.094842
    31  H    5.675926   4.469694   2.964640   3.416857   2.147594
    32  H    4.619537   5.815631   5.895683   2.147693   3.416840
    33  H    6.414422   7.306204   7.361904   4.064759   4.856333
    34  H    8.144783   8.492996   8.353897   5.819958   6.113452
    35  H    8.469415   8.078511   7.543441   6.113408   5.819744
    36  H    7.212849   6.288172   5.313312   4.856708   4.064984
                   21         22         23         24         25
    21  C    0.000000
    22  C    1.421025   0.000000
    23  C    2.443113   1.410086   0.000000
    24  C    2.801068   2.443277   1.421127   0.000000
    25  C    3.740259   2.443369   1.421166   2.478500   0.000000
    26  C    4.222125   2.801239   2.419043   3.723392   1.368418
    27  C    3.723398   2.419033   2.801059   4.222050   2.415577
    28  C    2.478506   1.421127   2.443277   3.740330   2.801368
    29  H    3.395916   3.895958   3.418418   2.143406   4.618618
    30  H    2.143227   3.418217   3.895749   3.395857   5.316855
    31  H    1.095787   2.173370   3.429759   3.896832   4.613905
    32  H    3.896869   3.429910   2.173467   1.095825   2.702173
    33  H    4.613711   3.429869   2.173416   2.702178   1.095684
    34  H    5.316887   3.895924   3.418415   4.618650   2.143454
    35  H    4.618520   3.418249   3.895666   5.316733   3.395776
    36  H    2.702439   2.173494   3.429884   4.613940   3.897065
                   26         27         28         29         30
    26  C    0.000000
    27  C    1.414587   0.000000
    28  C    2.415766   1.368505   0.000000
    29  H    5.819854   6.113442   5.317024   0.000000
    30  H    6.113351   5.819680   4.618451   2.476999   0.000000
    31  H    4.856550   4.064892   2.702285   4.307171   2.486870
    32  H    4.064715   4.856352   4.613922   2.487222   4.307258
    33  H    2.147617   3.416795   3.897029   4.775919   5.930815
    34  H    1.094878   2.168433   3.395986   6.753072   7.192810
    35  H    2.168406   1.094798   2.143328   7.192800   6.752764
    36  H    3.416953   2.147687   1.095719   5.931168   4.775988
                   31         32         33         34         35
    31  H    0.000000
    32  H    4.992616   0.000000
    33  H    5.566523   2.461600   0.000000
    34  H    5.931008   4.776016   2.487316   0.000000
    35  H    4.776065   5.930745   4.307044   2.476605   0.000000
    36  H    2.462002   5.566694   4.992708   4.307173   2.487106
                   36
    36  H    0.000000
 Stoichiometry    C20H16
 Framework group  C1[X(C20H16)]
 Deg. of freedom   102
 Full point group                 C1      NOp   1
 Largest Abelian subgroup         C1      NOp   1
 Largest concise Abelian subgroup C1      NOp   1
                         Standard orientation:                         
 ---------------------------------------------------------------------
 Center     Atomic      Atomic             Coordinates (Angstroms)
 Number     Number       Type             X           Y           Z
 ---------------------------------------------------------------------
      1          6           0       -2.003516   -2.452170   -0.570343
      2          6           0       -1.997000   -2.377922    0.842277
      3          6           0       -1.993672   -1.163398    1.472745
      4          6           0       -1.996732    0.037688    0.713342
      5          6           0       -2.003227   -0.036233   -0.694790
      6          6           0       -2.006573   -1.310255   -1.324441
      7          6           0       -2.006289    1.164831   -1.454493
      8          6           0       -2.002960    2.379355   -0.824025
      9          6           0       -1.996445    2.453503    0.588602
     10          6           0       -1.993386    1.311709    1.342992
     11          1           0       -2.006072   -3.436088   -1.050541
     12          1           0       -1.994663   -3.306048    1.423015
     13          1           0       -1.988624   -1.097696    2.566549
     14          1           0       -2.011619   -1.359280   -2.419156
     15          1           0       -2.011336    1.098936   -2.548182
     16          1           0       -2.005296    3.307702   -1.404478
     17          1           0       -1.993889    3.437414    1.068701
     18          1           0       -1.988341    1.360926    2.437594
     19          6           0       -0.407870   -0.054680   -0.752054
     20          6           0       -0.429753    0.047903    0.658637
     21          6           0        0.739137    0.099481    1.368287
     22          6           0        1.989036    0.050421    0.694004
     23          6           0        2.010940   -0.051835   -0.712199
     24          6           0        0.782634   -0.103647   -1.425067
     25          6           0        3.260837   -0.100917   -1.386781
     26          6           0        4.429728   -0.049339   -0.677131
     27          6           0        4.407744    0.053245    0.733560
     28          6           0        3.217342    0.102233    1.406872
     29          1           0       -1.356895   -0.094254   -1.296551
     30          1           0       -1.395185    0.085373    1.173629
     31          1           0        0.730385    0.178953    2.461154
     32          1           0        0.808087   -0.183102   -2.517711
     33          1           0        3.269389   -0.180381   -2.479547
     34          1           0        5.395360   -0.086787   -1.191825
     35          1           0        5.356769    0.092811    1.277958
     36          1           0        3.192088    0.181681    2.499415
 ---------------------------------------------------------------------
 Rotational constants (GHZ):           0.6927103           0.2881622           0.2749673
 Standard basis: 6-31G(d) (6D, 7F)
 There are   332 symmetry adapted cartesian basis functions of A   symmetry.
 There are   332 symmetry adapted basis functions of A   symmetry.
   332 basis functions,   624 primitive gaussians,   332 cartesian basis functions
    68 alpha electrons       68 beta electrons
       nuclear repulsion energy      1511.2149578386 Hartrees.
 NAtoms=   36 NActive=   36 NUniq=   36 SFac= 1.00D+00 NAtFMM=   60 NAOKFM=F Big=F
 Integral buffers will be    131072 words long.
 Raffenetti 2 integral format.
 Two-electron integral symmetry is turned on.
 Nuclear repulsion after empirical dispersion term =     1511.1827318373 Hartrees.
 One-electron integrals computed using PRISM.
 NBasis=   332 RedAO= T EigKep=  2.17D-04  NBF=   332
 NBsUse=   332 1.00D-06 EigRej= -1.00D+00 NBFU=   332
 ExpMin= 1.61D-01 ExpMax= 3.05D+03 ExpMxC= 4.57D+02 IAcc=3 IRadAn=         5 AccDes= 0.00D+00
 Harris functional with IExCor= 4639 and IRadAn=       5 diagonalized for initial guess.
 HarFok:  IExCor= 4639 AccDes= 0.00D+00 IRadAn=         5 IDoV= 1 UseB2=F ITyADJ=14
 ICtDFT=  3500011 ScaDFX=  1.000000  1.000000  1.000000  1.000000
 FoFCou: FMM=F IPFlag=           0 FMFlag=      100000 FMFlg1=           0
         NFxFlg=           0 DoJE=T BraDBF=F KetDBF=T FulRan=T
         wScrn=  0.000000 ICntrl=       500 IOpCl=  0 I1Cent=   200000004 NGrid=           0
         NMat0=    1 NMatS0=      1 NMatT0=    0 NMatD0=    1 NMtDS0=    0 NMtDT0=    0
 Petite list used in FoFCou.
 Requested convergence on RMS density matrix=1.00D-08 within 128 cycles.
 Requested convergence on MAX density matrix=1.00D-06.
 Requested convergence on             energy=1.00D-06.
 No special actions if energy rises.
 Integral accuracy reduced to 1.0D-05 until final iterations.
 Initial convergence to 1.0D-05 achieved.  Increase integral accuracy.
 SCF Done:  E(RwB97XD) =  -770.435170854     A.U. after   29 cycles
            NFock= 29  Conv=0.19D-08     -V/T= 2.0044

 **********************************************************************

            Population analysis using the SCF Density.

 **********************************************************************

 Orbital symmetries:
       Occupied  (A) (A) (A) (A) (A) (A) (A) (A) (A) (A) (A) (A)
                 (A) (A) (A) (A) (A) (A) (A) (A) (A) (A) (A) (A)
                 (A) (A) (A) (A) (A) (A) (A) (A) (A) (A) (A) (A)
                 (A) (A) (A) (A) (A) (A) (A) (A) (A) (A) (A) (A)
                 (A) (A) (A) (A) (A) (A) (A) (A) (A) (A) (A) (A)
                 (A) (A) (A) (A) (A) (A) (A) (A)
       Virtual   (A) (A) (A) (A) (A) (A) (A) (A) (A) (A) (A) (A)
                 (A) (A) (A) (A) (A) (A) (A) (A) (A) (A) (A) (A)
                 (A) (A) (A) (A) (A) (A) (A) (A) (A) (A) (A) (A)
                 (A) (A) (A) (A) (A) (A) (A) (A) (A) (A) (A) (A)
                 (A) (A) (A) (A) (A) (A) (A) (A) (A) (A) (A) (A)
                 (A) (A) (A) (A) (A) (A) (A) (A) (A) (A) (A) (A)
                 (A) (A) (A) (A) (A) (A) (A) (A) (A) (A) (A) (A)
                 (A) (A) (A) (A) (A) (A) (A) (A) (A) (A) (A) (A)
                 (A) (A) (A) (A) (A) (A) (A) (A) (A) (A) (A) (A)
                 (A) (A) (A) (A) (A) (A) (A) (A) (A) (A) (A) (A)
                 (A) (A) (A) (A) (A) (A) (A) (A) (A) (A) (A) (A)
                 (A) (A) (A) (A) (A) (A) (A) (A) (A) (A) (A) (A)
                 (A) (A) (A) (A) (A) (A) (A) (A) (A) (A) (A) (A)
                 (A) (A) (A) (A) (A) (A) (A) (A) (A) (A) (A) (A)
                 (A) (A) (A) (A) (A) (A) (A) (A) (A) (A) (A) (A)
                 (A) (A) (A) (A) (A) (A) (A) (A) (A) (A) (A) (A)
                 (A) (A) (A) (A) (A) (A) (A) (A) (A) (A) (A) (A)
                 (A) (A) (A) (A) (A) (A) (A) (A) (A) (A) (A) (A)
                 (A) (A) (A) (A) (A) (A) (A) (A) (A) (A) (A) (A)
                 (A) (A) (A) (A) (A) (A) (A) (A) (A) (A) (A) (A)
                 (A) (A) (A) (A) (A) (A) (A) (A) (A) (A) (A) (A)
                 (A) (A) (A) (A) (A) (A) (A) (A) (A) (A) (A) (A)
 The electronic state is 1-A.
 Alpha  occ. eigenvalues --  -10.43326 -10.42366 -10.39593 -10.38212 -10.31618
 Alpha  occ. eigenvalues --  -10.31074 -10.30887 -10.30674 -10.30528 -10.30475
 Alpha  occ. eigenvalues --  -10.30237 -10.29960 -10.29780 -10.29563 -10.29275
 Alpha  occ. eigenvalues --  -10.28958 -10.28586 -10.28520 -10.28386 -10.28319
 Alpha  occ. eigenvalues --   -1.26831  -1.17194  -0.97467  -0.94698  -0.92465
 Alpha  occ. eigenvalues --   -0.89139  -0.86786  -0.85121  -0.84507  -0.82484
 Alpha  occ. eigenvalues --   -0.81429  -0.78496  -0.76430  -0.75004  -0.69391
 Alpha  occ. eigenvalues --   -0.68321  -0.66757  -0.63783  -0.63117  -0.62927
 Alpha  occ. eigenvalues --   -0.60504  -0.59319  -0.57101  -0.56633  -0.54083
 Alpha  occ. eigenvalues --   -0.53611  -0.53079  -0.52933  -0.52776  -0.50454
 Alpha  occ. eigenvalues --   -0.50183  -0.48860  -0.48342  -0.46667  -0.45574
 Alpha  occ. eigenvalues --   -0.44669  -0.44494  -0.44212  -0.42002  -0.40557
 Alpha  occ. eigenvalues --   -0.38834  -0.38539  -0.38290  -0.32982  -0.31498
 Alpha  occ. eigenvalues --   -0.26814  -0.26611  -0.14209
 Alpha virt. eigenvalues --    0.00459   0.03157   0.04934   0.05556   0.10459
 Alpha virt. eigenvalues --    0.10880   0.14713   0.14897   0.15475   0.16698
 Alpha virt. eigenvalues --    0.17546   0.18611   0.19839   0.20718   0.21074
 Alpha virt. eigenvalues --    0.22187   0.23459   0.24134   0.25120   0.26475
 Alpha virt. eigenvalues --    0.26697   0.27565   0.28261   0.28388   0.28627
 Alpha virt. eigenvalues --    0.29481   0.29554   0.33095   0.34050   0.37083
 Alpha virt. eigenvalues --    0.38067   0.38272   0.38868   0.39874   0.40281
 Alpha virt. eigenvalues --    0.41924   0.43386   0.43512   0.44892   0.50916
 Alpha virt. eigenvalues --    0.51715   0.52774   0.53078   0.56337   0.56393
 Alpha virt. eigenvalues --    0.56954   0.57762   0.59035   0.59102   0.59307
 Alpha virt. eigenvalues --    0.60208   0.62172   0.62366   0.62716   0.63331
 Alpha virt. eigenvalues --    0.63625   0.63955   0.64368   0.66336   0.66369
 Alpha virt. eigenvalues --    0.67930   0.68168   0.68290   0.68868   0.69560
 Alpha virt. eigenvalues --    0.70159   0.70461   0.70805   0.71379   0.72045
 Alpha virt. eigenvalues --    0.72874   0.73111   0.74570   0.76551   0.76885
 Alpha virt. eigenvalues --    0.76954   0.81959   0.83882   0.84260   0.84962
 Alpha virt. eigenvalues --    0.85099   0.86698   0.88223   0.89144   0.89352
 Alpha virt. eigenvalues --    0.90066   0.90401   0.91980   0.92017   0.93342
 Alpha virt. eigenvalues --    0.93876   0.94222   0.94456   0.94852   0.95144
 Alpha virt. eigenvalues --    0.95342   0.97050   0.98120   0.98561   0.99056
 Alpha virt. eigenvalues --    1.00335   1.02717   1.02892   1.03169   1.03322
 Alpha virt. eigenvalues --    1.06405   1.06890   1.08189   1.09373   1.12275
 Alpha virt. eigenvalues --    1.12853   1.13280   1.15034   1.15696   1.16278
 Alpha virt. eigenvalues --    1.16378   1.18548   1.22288   1.22431   1.23234
 Alpha virt. eigenvalues --    1.26071   1.27191   1.28017   1.28704   1.30223
 Alpha virt. eigenvalues --    1.32296   1.34636   1.35617   1.36415   1.37658
 Alpha virt. eigenvalues --    1.37700   1.41770   1.43453   1.46871   1.47733
 Alpha virt. eigenvalues --    1.48515   1.49089   1.51338   1.53509   1.53923
 Alpha virt. eigenvalues --    1.56162   1.56353   1.57020   1.57965   1.58327
 Alpha virt. eigenvalues --    1.59811   1.59991   1.60688   1.61003   1.61273
 Alpha virt. eigenvalues --    1.61509   1.65223   1.65909   1.74943   1.75095
 Alpha virt. eigenvalues --    1.75937   1.78510   1.86716   1.87318   1.89382
 Alpha virt. eigenvalues --    1.91704   1.92500   1.94506   1.95019   1.99329
 Alpha virt. eigenvalues --    1.99465   2.00580   2.00870   2.01205   2.02425
 Alpha virt. eigenvalues --    2.02831   2.03260   2.03349   2.04421   2.04977
 Alpha virt. eigenvalues --    2.06500   2.08046   2.08899   2.11023   2.11697
 Alpha virt. eigenvalues --    2.13943   2.14937   2.18222   2.19894   2.23116
 Alpha virt. eigenvalues --    2.23913   2.25786   2.26932   2.28505   2.29093
 Alpha virt. eigenvalues --    2.30609   2.31184   2.31887   2.33402   2.35250
 Alpha virt. eigenvalues --    2.35877   2.36112   2.37658   2.40115   2.40536
 Alpha virt. eigenvalues --    2.42565   2.43285   2.44311   2.44855   2.46687
 Alpha virt. eigenvalues --    2.47034   2.52753   2.54867   2.57264   2.57486
 Alpha virt. eigenvalues --    2.64563   2.67680   2.67817   2.69538   2.70270
 Alpha virt. eigenvalues --    2.71141   2.73723   2.74294   2.75491   2.76142
 Alpha virt. eigenvalues --    2.78202   2.80538   2.81451   2.83315   2.86102
 Alpha virt. eigenvalues --    2.86987   2.89020   2.91611   2.92401   2.96349
 Alpha virt. eigenvalues --    2.97774   2.99529   3.00595   3.02900   3.03006
 Alpha virt. eigenvalues --    3.09238   3.10622   3.22864   3.30063   3.41614
 Alpha virt. eigenvalues --    3.47203   3.51841   3.57339   3.70275   4.19268
 Alpha virt. eigenvalues --    4.20456   4.22470   4.23611   4.24734   4.28156
 Alpha virt. eigenvalues --    4.33127   4.37413   4.39687   4.42184   4.44049
 Alpha virt. eigenvalues --    4.50148   4.52271   4.54326   4.65301   4.71622
 Alpha virt. eigenvalues --    4.76078   4.85900   4.97741   5.33806
          Condensed to atoms (all electrons):
               1          2          3          4          5          6
     1  C    4.913748   0.534576  -0.050555  -0.029149  -0.001548   0.524213
     2  C    0.534576   4.894577   0.533657  -0.004059  -0.028820  -0.046924
     3  C   -0.050555   0.533657   5.361723   0.375849  -0.034364  -0.034136
     4  C   -0.029149  -0.004059   0.375849   5.377790   0.255337  -0.022349
     5  C   -0.001548  -0.028820  -0.034364   0.255337   5.329362   0.335170
     6  C    0.524213  -0.046924  -0.034136  -0.022349   0.335170   5.453692
     7  C    0.007572   0.000182  -0.001268  -0.021406   0.433528  -0.070997
     8  C   -0.000264  -0.000023   0.000239  -0.031152  -0.011939   0.007759
     9  C   -0.000029  -0.000277   0.007523  -0.003210  -0.034163   0.000328
    10  C    0.000309   0.007618  -0.055441   0.358533  -0.017549  -0.001734
    11  H    0.368851  -0.031175   0.003541   0.001114   0.003090  -0.031299
    12  H   -0.031494   0.368640  -0.030698   0.002817   0.001135   0.003552
    13  H    0.003525  -0.026469   0.359804  -0.065838   0.003463   0.000549
    14  H   -0.023962   0.003451   0.000551   0.002882  -0.063571   0.353567
    15  H   -0.000027   0.000010  -0.000069   0.003207  -0.067690  -0.010276
    16  H    0.000002  -0.000000   0.000009   0.001159   0.002960  -0.000181
    17  H   -0.000000   0.000002  -0.000164   0.002829   0.001117   0.000009
    18  H    0.000005   0.000028  -0.009812  -0.067000   0.003115  -0.000062
    19  C   -0.011443  -0.006459   0.015634  -0.118717   0.047356  -0.169696
    20  C   -0.005655  -0.009046  -0.132775   0.109518  -0.081711   0.012263
    21  C    0.001948   0.004128  -0.024271  -0.056344   0.013978  -0.002812
    22  C   -0.000099  -0.000203   0.001115   0.001721   0.000169   0.000221
    23  C   -0.000188  -0.000045   0.000158   0.000008   0.001577   0.000987
    24  C    0.004190   0.001367  -0.001563   0.011702  -0.044254  -0.017577
    25  C   -0.000006  -0.000003   0.000001   0.000010  -0.000023   0.000014
    26  C    0.000000   0.000000  -0.000000  -0.000000   0.000001  -0.000000
    27  C    0.000000   0.000000  -0.000000   0.000001  -0.000000  -0.000000
    28  C   -0.000004  -0.000008   0.000021  -0.000015   0.000009   0.000003
    29  H   -0.021275   0.002355  -0.002578   0.028345  -0.099198   0.060203
    30  H    0.003309  -0.020432   0.048493  -0.164492   0.034706  -0.009239
    31  H    0.000018   0.000176  -0.000272  -0.000805  -0.000252  -0.000001
    32  H    0.000201   0.000012  -0.000003  -0.000340   0.000165  -0.000077
    33  H    0.000000  -0.000000  -0.000000  -0.000000  -0.000000   0.000000
    34  H    0.000000   0.000000  -0.000000  -0.000000  -0.000000   0.000000
    35  H    0.000000   0.000000   0.000000  -0.000000  -0.000000  -0.000000
    36  H   -0.000000   0.000000  -0.000001  -0.000001  -0.000000  -0.000000
               7          8          9         10         11         12
     1  C    0.007572  -0.000264  -0.000029   0.000309   0.368851  -0.031494
     2  C    0.000182  -0.000023  -0.000277   0.007618  -0.031175   0.368640
     3  C   -0.001268   0.000239   0.007523  -0.055441   0.003541  -0.030698
     4  C   -0.021406  -0.031152  -0.003210   0.358533   0.001114   0.002817
     5  C    0.433528  -0.011939  -0.034163  -0.017549   0.003090   0.001135
     6  C   -0.070997   0.007759   0.000328  -0.001734  -0.031299   0.003552
     7  C    5.410665   0.517989  -0.047862  -0.032635  -0.000160   0.000009
     8  C    0.517989   4.911685   0.545758  -0.052171   0.000002  -0.000000
     9  C   -0.047862   0.545758   4.897392   0.522079  -0.000000   0.000002
    10  C   -0.032635  -0.052171   0.522079   5.421503   0.000009  -0.000167
    11  H   -0.000160   0.000002  -0.000000   0.000009   0.524119  -0.004011
    12  H    0.000009  -0.000000   0.000002  -0.000167  -0.004011   0.522449
    13  H   -0.000062   0.000005   0.000024  -0.009768  -0.000120  -0.004006
    14  H   -0.009359  -0.000040   0.000009  -0.000056  -0.003995  -0.000113
    15  H    0.356598  -0.024041   0.003526   0.000584  -0.000008   0.000000
    16  H   -0.031590   0.368971  -0.031209   0.003574  -0.000000   0.000000
    17  H    0.003573  -0.030973   0.368642  -0.031536   0.000000  -0.000000
    18  H    0.000560   0.003541  -0.025884   0.357245   0.000000  -0.000007
    19  C   -0.201473  -0.005096  -0.004872   0.005832  -0.000962   0.000217
    20  C    0.007707  -0.002768  -0.003346  -0.183346   0.000204  -0.000910
    21  C   -0.002003   0.002000   0.004558  -0.019251   0.000013  -0.000024
    22  C    0.000085  -0.000087  -0.000205   0.001004  -0.000001   0.000000
    23  C    0.000818  -0.000156  -0.000043   0.000217  -0.000000  -0.000001
    24  C   -0.023099   0.004423   0.001508  -0.002234   0.000002   0.000012
    25  C    0.000027  -0.000008  -0.000003   0.000003  -0.000000  -0.000000
    26  C   -0.000001   0.000000   0.000000  -0.000000  -0.000000   0.000000
    27  C   -0.000000   0.000000   0.000000  -0.000000   0.000000  -0.000000
    28  C    0.000003  -0.000004  -0.000009   0.000016  -0.000000  -0.000000
    29  H    0.031283  -0.016902   0.003042  -0.005643   0.000260  -0.000143
    30  H   -0.005455   0.002887  -0.024569   0.082443  -0.000147   0.000530
    31  H    0.000007   0.000010   0.000178   0.000486   0.000000  -0.000001
    32  H    0.000397   0.000105   0.000006   0.000006  -0.000000   0.000000
    33  H    0.000001   0.000000  -0.000000  -0.000000   0.000000   0.000000
    34  H    0.000000   0.000000  -0.000000  -0.000000   0.000000  -0.000000
    35  H    0.000000  -0.000000   0.000000   0.000000   0.000000   0.000000
    36  H   -0.000000  -0.000000   0.000000   0.000000   0.000000   0.000000
              13         14         15         16         17         18
     1  C    0.003525  -0.023962  -0.000027   0.000002  -0.000000   0.000005
     2  C   -0.026469   0.003451   0.000010  -0.000000   0.000002   0.000028
     3  C    0.359804   0.000551  -0.000069   0.000009  -0.000164  -0.009812
     4  C   -0.065838   0.002882   0.003207   0.001159   0.002829  -0.067000
     5  C    0.003463  -0.063571  -0.067690   0.002960   0.001117   0.003115
     6  C    0.000549   0.353567  -0.010276  -0.000181   0.000009  -0.000062
     7  C   -0.000062  -0.009359   0.356598  -0.031590   0.003573   0.000560
     8  C    0.000005  -0.000040  -0.024041   0.368971  -0.030973   0.003541
     9  C    0.000024   0.000009   0.003526  -0.031209   0.368642  -0.025884
    10  C   -0.009768  -0.000056   0.000584   0.003574  -0.031536   0.357245
    11  H   -0.000120  -0.003995  -0.000008  -0.000000   0.000000   0.000000
    12  H   -0.004006  -0.000113   0.000000   0.000000  -0.000000  -0.000007
    13  H    0.501024   0.000010   0.000001   0.000000  -0.000007   0.003385
    14  H    0.000010   0.490873   0.003182  -0.000008   0.000000   0.000001
    15  H    0.000001   0.003182   0.499018  -0.004192  -0.000118   0.000010
    16  H    0.000000  -0.000008  -0.004192   0.528577  -0.004133  -0.000122
    17  H   -0.000007   0.000000  -0.000118  -0.004133   0.525701  -0.004074
    18  H    0.003385   0.000001   0.000010  -0.000122  -0.004074   0.502629
    19  C   -0.000353  -0.010308  -0.008339  -0.000744   0.000248  -0.000163
    20  C   -0.006956   0.000378   0.000305   0.000224  -0.000924  -0.006552
    21  C    0.002417   0.000064   0.000054   0.000008  -0.000031   0.002217
    22  C   -0.000044  -0.000001   0.000001  -0.000001   0.000001  -0.000037
    23  C    0.000004  -0.000038  -0.000036   0.000001  -0.000001   0.000003
    24  C    0.000030   0.001524   0.001661  -0.000025   0.000012   0.000036
    25  C    0.000000  -0.000002  -0.000002  -0.000000  -0.000000   0.000000
    26  C   -0.000000   0.000000   0.000000  -0.000000   0.000000  -0.000000
    27  C    0.000000   0.000000   0.000000   0.000000  -0.000000   0.000000
    28  C   -0.000003  -0.000000  -0.000000  -0.000000   0.000000  -0.000003
    29  H   -0.000104   0.047021   0.046687   0.000358  -0.000115  -0.000063
    30  H    0.043147  -0.000193  -0.000268  -0.000187   0.000525   0.046163
    31  H    0.000071   0.000000  -0.000000   0.000000  -0.000002   0.000005
    32  H   -0.000000   0.000096   0.000072  -0.000001   0.000000  -0.000000
    33  H    0.000000  -0.000000  -0.000000   0.000000  -0.000000   0.000000
    34  H    0.000000  -0.000000  -0.000000   0.000000  -0.000000  -0.000000
    35  H    0.000000   0.000000  -0.000000  -0.000000   0.000000  -0.000000
    36  H   -0.000000   0.000000   0.000000  -0.000000   0.000000  -0.000001
              19         20         21         22         23         24
     1  C   -0.011443  -0.005655   0.001948  -0.000099  -0.000188   0.004190
     2  C   -0.006459  -0.009046   0.004128  -0.000203  -0.000045   0.001367
     3  C    0.015634  -0.132775  -0.024271   0.001115   0.000158  -0.001563
     4  C   -0.118717   0.109518  -0.056344   0.001721   0.000008   0.011702
     5  C    0.047356  -0.081711   0.013978   0.000169   0.001577  -0.044254
     6  C   -0.169696   0.012263  -0.002812   0.000221   0.000987  -0.017577
     7  C   -0.201473   0.007707  -0.002003   0.000085   0.000818  -0.023099
     8  C   -0.005096  -0.002768   0.002000  -0.000087  -0.000156   0.004423
     9  C   -0.004872  -0.003346   0.004558  -0.000205  -0.000043   0.001508
    10  C    0.005832  -0.183346  -0.019251   0.001004   0.000217  -0.002234
    11  H   -0.000962   0.000204   0.000013  -0.000001  -0.000000   0.000002
    12  H    0.000217  -0.000910  -0.000024   0.000000  -0.000001   0.000012
    13  H   -0.000353  -0.006956   0.002417  -0.000044   0.000004   0.000030
    14  H   -0.010308   0.000378   0.000064  -0.000001  -0.000038   0.001524
    15  H   -0.008339   0.000305   0.000054   0.000001  -0.000036   0.001661
    16  H   -0.000744   0.000224   0.000008  -0.000001   0.000001  -0.000025
    17  H    0.000248  -0.000924  -0.000031   0.000001  -0.000001   0.000012
    18  H   -0.000163  -0.006552   0.002217  -0.000037   0.000003   0.000036
    19  C    5.576072   0.423998  -0.038250  -0.029114   0.002236   0.472316
    20  C    0.423998   5.518262   0.454211   0.004521  -0.025781  -0.038818
    21  C   -0.038250   0.454211   5.394658   0.383230  -0.041361  -0.079829
    22  C   -0.029114   0.004521   0.383230   4.654713   0.535042  -0.040277
    23  C    0.002236  -0.025781  -0.041361   0.535042   4.635062   0.393593
    24  C    0.472316  -0.038818  -0.079829  -0.040277   0.393593   5.393981
    25  C    0.006592   0.000217   0.013140  -0.024533   0.497917  -0.083920
    26  C   -0.000314   0.000033  -0.000490  -0.037095  -0.017372   0.007641
    27  C    0.000039  -0.000300   0.007540  -0.017546  -0.036680  -0.000482
    28  C    0.000188   0.006473  -0.082927   0.496840  -0.025505   0.013136
    29  H   -0.006566  -0.040812   0.005239   0.000544   0.000986   0.014684
    30  H   -0.025291  -0.091452   0.028288   0.001154   0.000656   0.005107
    31  H    0.003662  -0.044244   0.358907  -0.021274   0.003570   0.000534
    32  H   -0.037918   0.003660   0.000786   0.003410  -0.020188   0.353745
    33  H    0.000337   0.000016  -0.000165   0.003469  -0.039870  -0.005606
    34  H    0.000003  -0.000001   0.000009   0.000953   0.002162  -0.000164
    35  H   -0.000001   0.000003  -0.000163   0.002191   0.000948   0.000008
    36  H    0.000014   0.000305  -0.005396  -0.040034   0.003405  -0.000167
              25         26         27         28         29         30
     1  C   -0.000006   0.000000   0.000000  -0.000004  -0.021275   0.003309
     2  C   -0.000003   0.000000   0.000000  -0.000008   0.002355  -0.020432
     3  C    0.000001  -0.000000  -0.000000   0.000021  -0.002578   0.048493
     4  C    0.000010  -0.000000   0.000001  -0.000015   0.028345  -0.164492
     5  C   -0.000023   0.000001  -0.000000   0.000009  -0.099198   0.034706
     6  C    0.000014  -0.000000  -0.000000   0.000003   0.060203  -0.009239
     7  C    0.000027  -0.000001  -0.000000   0.000003   0.031283  -0.005455
     8  C   -0.000008   0.000000   0.000000  -0.000004  -0.016902   0.002887
     9  C   -0.000003   0.000000   0.000000  -0.000009   0.003042  -0.024569
    10  C    0.000003  -0.000000  -0.000000   0.000016  -0.005643   0.082443
    11  H   -0.000000  -0.000000   0.000000  -0.000000   0.000260  -0.000147
    12  H   -0.000000   0.000000  -0.000000  -0.000000  -0.000143   0.000530
    13  H    0.000000  -0.000000   0.000000  -0.000003  -0.000104   0.043147
    14  H   -0.000002   0.000000   0.000000  -0.000000   0.047021  -0.000193
    15  H   -0.000002   0.000000   0.000000  -0.000000   0.046687  -0.000268
    16  H   -0.000000  -0.000000   0.000000  -0.000000   0.000358  -0.000187
    17  H   -0.000000   0.000000  -0.000000   0.000000  -0.000115   0.000525
    18  H    0.000000  -0.000000   0.000000  -0.000003  -0.000063   0.046163
    19  C    0.006592  -0.000314   0.000039   0.000188  -0.006566  -0.025291
    20  C    0.000217   0.000033  -0.000300   0.006473  -0.040812  -0.091452
    21  C    0.013140  -0.000490   0.007540  -0.082927   0.005239   0.028288
    22  C   -0.024533  -0.037095  -0.017546   0.496840   0.000544   0.001154
    23  C    0.497917  -0.017372  -0.036680  -0.025505   0.000986   0.000656
    24  C   -0.083920   0.007641  -0.000482   0.013136   0.014684   0.005107
    25  C    5.049322   0.530399  -0.031194  -0.060098  -0.000177  -0.000006
    26  C    0.530399   4.904774   0.528036  -0.030925   0.000001   0.000000
    27  C   -0.031194   0.528036   4.906100   0.530805  -0.000000   0.000001
    28  C   -0.060098  -0.030925   0.530805   5.048138   0.000001  -0.000216
    29  H   -0.000177   0.000001  -0.000000   0.000001   0.690492  -0.004345
    30  H   -0.000006   0.000000   0.000001  -0.000216  -0.004345   0.776929
    31  H   -0.000163   0.000019   0.000190  -0.006643  -0.000198  -0.000542
    32  H   -0.006463   0.000155   0.000023  -0.000180  -0.002819  -0.000175
    33  H    0.363689  -0.038662   0.003744   0.000478  -0.000006   0.000000
    34  H   -0.033193   0.365426  -0.035908   0.003389  -0.000000  -0.000000
    35  H    0.003390  -0.035889   0.365589  -0.033266  -0.000000  -0.000000
    36  H    0.000491   0.003735  -0.038224   0.363421   0.000000  -0.000003
              31         32         33         34         35         36
     1  C    0.000018   0.000201   0.000000   0.000000   0.000000  -0.000000
     2  C    0.000176   0.000012  -0.000000   0.000000   0.000000   0.000000
     3  C   -0.000272  -0.000003  -0.000000  -0.000000   0.000000  -0.000001
     4  C   -0.000805  -0.000340  -0.000000  -0.000000  -0.000000  -0.000001
     5  C   -0.000252   0.000165  -0.000000  -0.000000  -0.000000  -0.000000
     6  C   -0.000001  -0.000077   0.000000   0.000000  -0.000000  -0.000000
     7  C    0.000007   0.000397   0.000001   0.000000   0.000000  -0.000000
     8  C    0.000010   0.000105   0.000000   0.000000  -0.000000  -0.000000
     9  C    0.000178   0.000006  -0.000000  -0.000000   0.000000   0.000000
    10  C    0.000486   0.000006  -0.000000  -0.000000   0.000000   0.000000
    11  H    0.000000  -0.000000   0.000000   0.000000   0.000000   0.000000
    12  H   -0.000001   0.000000   0.000000  -0.000000   0.000000   0.000000
    13  H    0.000071  -0.000000   0.000000   0.000000   0.000000  -0.000000
    14  H    0.000000   0.000096  -0.000000  -0.000000   0.000000   0.000000
    15  H   -0.000000   0.000072  -0.000000  -0.000000  -0.000000   0.000000
    16  H    0.000000  -0.000001   0.000000   0.000000  -0.000000  -0.000000
    17  H   -0.000002   0.000000  -0.000000  -0.000000   0.000000   0.000000
    18  H    0.000005  -0.000000   0.000000  -0.000000  -0.000000  -0.000001
    19  C    0.003662  -0.037918   0.000337   0.000003  -0.000001   0.000014
    20  C   -0.044244   0.003660   0.000016  -0.000001   0.000003   0.000305
    21  C    0.358907   0.000786  -0.000165   0.000009  -0.000163  -0.005396
    22  C   -0.021274   0.003410   0.003469   0.000953   0.002191  -0.040034
    23  C    0.003570  -0.020188  -0.039870   0.002162   0.000948   0.003405
    24  C    0.000534   0.353745  -0.005606  -0.000164   0.000008  -0.000167
    25  C   -0.000163  -0.006463   0.363689  -0.033193   0.003390   0.000491
    26  C    0.000019   0.000155  -0.038662   0.365426  -0.035889   0.003735
    27  C    0.000190   0.000023   0.003744  -0.035908   0.365589  -0.038224
    28  C   -0.006643  -0.000180   0.000478   0.003389  -0.033266   0.363421
    29  H   -0.000198  -0.002819  -0.000006  -0.000000  -0.000000   0.000000
    30  H   -0.000542  -0.000175   0.000000  -0.000000  -0.000000  -0.000003
    31  H    0.531363   0.000015   0.000002   0.000000  -0.000011   0.005373
    32  H    0.000015   0.533592   0.005467  -0.000011   0.000000   0.000002
    33  H    0.000002   0.005467   0.557890  -0.004048  -0.000153   0.000016
    34  H    0.000000  -0.000011  -0.004048   0.549382  -0.003789  -0.000153
    35  H   -0.000011   0.000000  -0.000153  -0.003789   0.549541  -0.004070
    36  H    0.005373   0.000002   0.000016  -0.000153  -0.004070   0.557727
 Mulliken charges:
               1
     1  C   -0.186766
     2  C   -0.176835
     3  C   -0.330349
     4  C    0.052055
     5  C    0.018845
     6  C   -0.335171
     7  C   -0.323634
     8  C   -0.189750
     9  C   -0.178894
    10  C   -0.349930
    11  H    0.170675
    12  H    0.172211
    13  H    0.196270
    14  H    0.208040
    15  H    0.200150
    16  H    0.166550
    17  H    0.169420
    18  H    0.194836
    19  C    0.121333
    20  C    0.133102
    21  C   -0.324075
    22  C    0.120164
    23  C    0.127918
    24  C   -0.343200
    25  C   -0.225417
    26  C   -0.179473
    27  C   -0.181733
    28  C   -0.223115
    29  H    0.269444
    30  H    0.272672
    31  H    0.169824
    32  H    0.166260
    33  H    0.153402
    34  H    0.155943
    35  H    0.155671
    36  H    0.153559
 Sum of Mulliken charges =  -0.00000
 Mulliken charges with hydrogens summed into heavy atoms:
               1
     1  C   -0.016091
     2  C   -0.004624
     3  C   -0.134079
     4  C    0.324726
     5  C    0.288289
     6  C   -0.127131
     7  C   -0.123484
     8  C   -0.023201
     9  C   -0.009474
    10  C   -0.155094
    19  C    0.121333
    20  C    0.133102
    21  C   -0.154251
    22  C    0.120164
    23  C    0.127918
    24  C   -0.176940
    25  C   -0.072015
    26  C   -0.023530
    27  C   -0.026063
    28  C   -0.069555
 Electronic spatial extent (au):  <R**2>=           4519.6338
 Charge=             -0.0000 electrons
 Dipole moment (field-independent basis, Debye):
    X=             -1.5542    Y=             -0.2867    Z=             -0.1038  Tot=              1.5838
 Quadrupole moment (field-independent basis, Debye-Ang):
   XX=           -123.0066   YY=           -119.0331   ZZ=           -101.2363
   XY=              0.7228   XZ=              0.4242   YZ=              1.2198
 Traceless Quadrupole moment (field-independent basis, Debye-Ang):
   XX=             -8.5813   YY=             -4.6078   ZZ=             13.1890
   XY=              0.7228   XZ=              0.4242   YZ=              1.2198
 Octapole moment (field-independent basis, Debye-Ang**2):
  XXX=             59.7434  YYY=             -1.9380  ZZZ=             -0.5060  XYY=            -14.5288
  XXY=             -1.8201  XXZ=             -0.8616  XZZ=             -3.0835  YZZ=             -0.6041
  YYZ=              0.7632  XYZ=              0.9693
 Hexadecapole moment (field-independent basis, Debye-Ang**3):
 XXXX=          -3986.7136 YYYY=          -1136.4243 ZZZZ=           -924.5636 XXXY=              5.2206
 XXXZ=              0.9922 YYYX=              4.0166 YYYZ=             -3.3344 ZZZX=              2.3774
 ZZZY=              6.7452 XXYY=           -951.5853 XXZZ=           -791.3078 YYZZ=           -367.6589
 XXYZ=              8.8117 YYXZ=             -0.9433 ZZXY=              1.5412
 N-N= 1.511182731837D+03 E-N=-4.805618928443D+03  KE= 7.670423317931D+02
 1\1\GINC-PADAWAN-X570S-UD\SP\RwB97XD\6-31G(d)\C20H16\PADAWAN\30-May-20
 22\0\\#n wB97xd/6-31G(d) SP\\Title\\0,1\C,0,2.4044,0.7559,0.\C,0,2.432
 8,-0.6584,0.\C,0,1.2672,-1.3753,0.\C,0,0.0142,-0.705,0.\C,0,-0.0142,0.
 7048,0.\C,0,1.2108,1.4252,0.\C,0,-1.2672,1.3754,0.\C,0,-2.4328,0.6585,
 0.\C,0,-2.4043,-0.7558,0.\C,0,-1.2108,-1.4254,0.\H,0,3.3509,1.3062,0.\
 H,0,3.4006,-1.1703,0.\H,0,1.281,-2.471,0.\H,0,1.1803,2.5206,0.\H,0,-1.
 2808,2.471,0.\H,0,-3.4008,1.1701,0.\H,0,-3.3508,-1.306,0.\H,0,-1.1805,
 -2.5207,0.\C,0,0.00001,0.7559,1.59561\C,0,0.00001,-0.6584,1.56721\C,0,
 0.00001,-1.3753,2.73281\C,0,0.00001,-0.705,3.98581\C,0,0.00001,0.7048,
 4.01421\C,0,0.00001,1.4252,2.78921\C,0,0.00001,1.3754,5.26721\C,0,0.00
 001,0.6585,6.43281\C,0,0.00001,-0.7558,6.40431\C,0,0.00001,-1.4254,5.2
 1081\H,0,0.00001,1.3062,0.64911\H,0,0.00001,-1.1703,0.59941\H,0,0.0000
 1,-2.471,2.71901\H,0,0.00001,2.5206,2.81971\H,0,0.00001,2.471,5.28081\
 H,0,0.00001,1.1701,7.40081\H,0,0.00001,-1.306,7.35081\H,0,0.00001,-2.5
 207,5.18051\\Version=EM64L-G16RevB.01\State=1-A\HF=-770.4351709\RMSD=1
 .874e-09\Dipole=0.1095321,0.0517328,-0.6112438\Quadrupole=-3.4873401,9
 .8702269,-6.3828868,-0.057398,-0.5132673,-0.2786422\PG=C01 [X(C20H16)]
 \\@


 Once you get people laughing, they're
 listening and you can tell them almost anything.
                                 -- Herb Gardner
 Job cpu time:       0 days  0 hours 33 minutes  9.7 seconds.
 Elapsed time:       0 days  0 hours  1 minutes  6.4 seconds.
 File lengths (MBytes):  RWF=     64 Int=      0 D2E=      0 Chk=      8 Scr=      1
 Normal termination of Gaussian 16 at Mon May 30 06:39:17 2022.
