 Entering Gaussian System, Link 0=g16
 Input=Naphthalene90x.com
 Output=Naphthalene90x.log
 Initial command:
 /usr/local/g16/l1.exe "/home/padawan/Ingrid/Naphthalene/Gau-6127.inp" -scrdir="/home/padawan/Ingrid/Naphthalene/"
 Entering Link 1 = /usr/local/g16/l1.exe PID=      6129.
  
 Copyright (c) 1988-2017, Gaussian, Inc.  All Rights Reserved.
  
 This is part of the Gaussian(R) 16 program.  It is based on
 the Gaussian(R) 09 system (copyright 2009, Gaussian, Inc.),
 the Gaussian(R) 03 system (copyright 2003, Gaussian, Inc.),
 the Gaussian(R) 98 system (copyright 1998, Gaussian, Inc.),
 the Gaussian(R) 94 system (copyright 1995, Gaussian, Inc.),
 the Gaussian 92(TM) system (copyright 1992, Gaussian, Inc.),
 the Gaussian 90(TM) system (copyright 1990, Gaussian, Inc.),
 the Gaussian 88(TM) system (copyright 1988, Gaussian, Inc.),
 the Gaussian 86(TM) system (copyright 1986, Carnegie Mellon
 University), and the Gaussian 82(TM) system (copyright 1983,
 Carnegie Mellon University). Gaussian is a federally registered
 trademark of Gaussian, Inc.
  
 This software contains proprietary and confidential information,
 including trade secrets, belonging to Gaussian, Inc.
  
 This software is provided under written license and may be
 used, copied, transmitted, or stored only in accord with that
 written license.
  
 The following legend is applicable only to US Government
 contracts under FAR:
  
                    RESTRICTED RIGHTS LEGEND
  
 Use, reproduction and disclosure by the US Government is
 subject to restrictions as set forth in subparagraphs (a)
 and (c) of the Commercial Computer Software - Restricted
 Rights clause in FAR 52.227-19.
  
 Gaussian, Inc.
 340 Quinnipiac St., Bldg. 40, Wallingford CT 06492
  
  
 ---------------------------------------------------------------
 Warning -- This program may not be used in any manner that
 competes with the business of Gaussian, Inc. or will provide
 assistance to any competitor of Gaussian, Inc.  The licensee
 of this program is prohibited from giving any competitor of
 Gaussian, Inc. access to this program.  By using this program,
 the user acknowledges that Gaussian, Inc. is engaged in the
 business of creating and licensing software in the field of
 computational chemistry and represents and warrants to the
 licensee that it is not a competitor of Gaussian, Inc. and that
 it will not use this program in any manner prohibited above.
 ---------------------------------------------------------------
  

 Cite this work as:
 Gaussian 16, Revision B.01,
 M. J. Frisch, G. W. Trucks, H. B. Schlegel, G. E. Scuseria, 
 M. A. Robb, J. R. Cheeseman, G. Scalmani, V. Barone, 
 G. A. Petersson, H. Nakatsuji, X. Li, M. Caricato, A. V. Marenich, 
 J. Bloino, B. G. Janesko, R. Gomperts, B. Mennucci, H. P. Hratchian, 
 J. V. Ortiz, A. F. Izmaylov, J. L. Sonnenberg, D. Williams-Young, 
 F. Ding, F. Lipparini, F. Egidi, J. Goings, B. Peng, A. Petrone, 
 T. Henderson, D. Ranasinghe, V. G. Zakrzewski, J. Gao, N. Rega, 
 G. Zheng, W. Liang, M. Hada, M. Ehara, K. Toyota, R. Fukuda, 
 J. Hasegawa, M. Ishida, T. Nakajima, Y. Honda, O. Kitao, H. Nakai, 
 T. Vreven, K. Throssell, J. A. Montgomery, Jr., J. E. Peralta, 
 F. Ogliaro, M. J. Bearpark, J. J. Heyd, E. N. Brothers, K. N. Kudin, 
 V. N. Staroverov, T. A. Keith, R. Kobayashi, J. Normand, 
 K. Raghavachari, A. P. Rendell, J. C. Burant, S. S. Iyengar, 
 J. Tomasi, M. Cossi, J. M. Millam, M. Klene, C. Adamo, R. Cammi, 
 J. W. Ochterski, R. L. Martin, K. Morokuma, O. Farkas, 
 J. B. Foresman, and D. J. Fox, Gaussian, Inc., Wallingford CT, 2016.
 
 ******************************************
 Gaussian 16:  EM64L-G16RevB.01 20-Dec-2017
                30-May-2022 
 ******************************************
 %nproc=30
 Will use up to   30 processors via shared memory.
 %mem=28GB
 %Chk=Naphthalene90x.chk
 ---------------------
 #n wB97xd/6-31G(d) SP
 ---------------------
 1/38=1,172=1/1;
 2/12=2,17=6,18=5,40=1/2;
 3/5=1,6=6,7=1,11=2,25=1,30=1,74=-58/1,2,3;
 4//1;
 5/5=2,38=5/2;
 6/7=2,8=2,9=2,10=2,28=1/1;
 99/5=1,9=1/99;
 -----
 Title
 -----
 Symbolic Z-matrix:
 Charge =  0 Multiplicity = 1
 C                     2.4044    0.7559    0. 
 C                     2.4328   -0.6584    0. 
 C                     1.2672   -1.3753    0. 
 C                     0.0142   -0.705     0. 
 C                    -0.0142    0.7048    0. 
 C                     1.2108    1.4252    0. 
 C                    -1.2672    1.3754    0. 
 C                    -2.4328    0.6585    0. 
 C                    -2.4043   -0.7558    0. 
 C                    -1.2108   -1.4254    0. 
 H                     3.3509    1.3062    0. 
 H                     3.4006   -1.1703    0. 
 H                     1.281    -2.471     0. 
 H                     1.1803    2.5206    0. 
 H                    -1.2808    2.471     0. 
 H                    -3.4008    1.1701    0. 
 H                    -3.3508   -1.306     0. 
 H                    -1.1805   -2.5207    0. 
 C                     2.4044   -0.00001   4.75591 
 C                     2.4328   -0.00001   3.34161 
 C                     1.2672   -0.00001   2.62471 
 C                     0.0142   -0.00001   3.29501 
 C                    -0.0142   -0.00001   4.70481 
 C                     1.2108   -0.00001   5.42521 
 C                    -1.2672   -0.00001   5.37541 
 C                    -2.4328   -0.00001   4.65851 
 C                    -2.4043   -0.00001   3.24421 
 C                    -1.2108   -0.00001   2.57461 
 H                     3.3509   -0.00001   5.30621 
 H                     3.4006   -0.00001   2.82971 
 H                     1.281    -0.00001   1.52901 
 H                     1.1803   -0.00001   6.52061 
 H                    -1.2808   -0.00001   6.47101 
 H                    -3.4008   -0.00001   5.17011 
 H                    -3.3508   -0.00001   2.69401 
 H                    -1.1805   -0.00001   1.47931 
 
                          Input orientation:                          
 ---------------------------------------------------------------------
 Center     Atomic      Atomic             Coordinates (Angstroms)
 Number     Number       Type             X           Y           Z
 ---------------------------------------------------------------------
      1          6           0        2.404400    0.755900    0.000000
      2          6           0        2.432800   -0.658400    0.000000
      3          6           0        1.267200   -1.375300    0.000000
      4          6           0        0.014200   -0.705000    0.000000
      5          6           0       -0.014200    0.704800    0.000000
      6          6           0        1.210800    1.425200    0.000000
      7          6           0       -1.267200    1.375400    0.000000
      8          6           0       -2.432800    0.658500    0.000000
      9          6           0       -2.404300   -0.755800    0.000000
     10          6           0       -1.210800   -1.425400    0.000000
     11          1           0        3.350900    1.306200    0.000000
     12          1           0        3.400600   -1.170300    0.000000
     13          1           0        1.281000   -2.471000    0.000000
     14          1           0        1.180300    2.520600    0.000000
     15          1           0       -1.280800    2.471000    0.000000
     16          1           0       -3.400800    1.170100    0.000000
     17          1           0       -3.350800   -1.306000    0.000000
     18          1           0       -1.180500   -2.520700    0.000000
     19          6           0        2.404400   -0.000010    4.755910
     20          6           0        2.432800   -0.000010    3.341610
     21          6           0        1.267200   -0.000010    2.624710
     22          6           0        0.014200   -0.000010    3.295010
     23          6           0       -0.014200   -0.000010    4.704810
     24          6           0        1.210800   -0.000010    5.425210
     25          6           0       -1.267200   -0.000010    5.375410
     26          6           0       -2.432800   -0.000010    4.658510
     27          6           0       -2.404300   -0.000010    3.244210
     28          6           0       -1.210800   -0.000010    2.574610
     29          1           0        3.350900   -0.000010    5.306210
     30          1           0        3.400600   -0.000010    2.829710
     31          1           0        1.281000   -0.000010    1.529010
     32          1           0        1.180300   -0.000010    6.520610
     33          1           0       -1.280800   -0.000010    6.471010
     34          1           0       -3.400800   -0.000010    5.170110
     35          1           0       -3.350800   -0.000010    2.694010
     36          1           0       -1.180500   -0.000010    1.479310
 ---------------------------------------------------------------------
                    Distance matrix (angstroms):
                    1          2          3          4          5
     1  C    0.000000
     2  C    1.414585   0.000000
     3  C    2.415624   1.368418   0.000000
     4  C    2.801301   2.419049   1.421025   0.000000
     5  C    2.419140   2.801093   2.443113   1.410086   0.000000
     6  C    1.368446   2.415507   2.801068   2.443277   1.421127
     7  C    3.723497   4.222125   3.740259   2.443369   1.421166
     8  C    4.838181   5.040664   4.222125   2.801239   2.419043
     9  C    5.040717   4.838081   3.723398   2.419033   2.801059
    10  C    4.222291   3.723454   2.478506   1.421127   2.443277
    11  H    1.094848   2.168539   3.395916   3.895958   3.418418
    12  H    2.168562   1.094842   2.143227   3.418217   3.895749
    13  H    3.416857   2.147594   1.095787   2.173370   3.429759
    14  H    2.147693   3.416840   3.896869   3.429910   2.173467
    15  H    4.064759   4.856333   4.613711   3.429869   2.173416
    16  H    5.819958   6.113452   5.316887   3.895924   3.418415
    17  H    6.113408   5.819744   4.618520   3.418249   3.895666
    18  H    4.856708   4.064984   2.702439   2.173494   3.429884
    19  C    4.815608   4.801350   5.079697   5.369241   5.381920
    20  C    3.426159   3.405853   3.796894   4.184853   4.201300
    21  C    2.958670   2.946388   2.963195   2.992678   3.004637
    22  C    4.140235   4.140072   3.783982   3.369585   3.369667
    23  C    5.343806   5.343830   5.066423   4.757421   4.757310
    24  C    5.606156   5.599970   5.597098   5.600158   5.606272
    25  C    6.553402   6.558850   6.099970   5.570819   5.564333
    26  C    6.758078   6.768254   6.105992   5.309099   5.296046
    27  C    5.849777   5.861392   5.088834   4.107439   4.090750
    28  C    4.502187   4.509758   3.828906   2.937048   2.925274
    29  H    5.442713   5.425150   5.864221   6.307650   6.322699
    30  H    3.093715   3.062250   3.801326   4.469002   4.490532
    31  H    2.042376   2.024350   2.056571   2.107051   2.124187
    32  H    6.677438   6.672375   6.664633   6.661468   6.666479
    33  H    7.485056   7.489878   7.089266   6.636867   6.631365
    34  H    7.810364   7.822685   7.100119   6.236126   6.220599
    35  H    6.399329   6.414140   5.520420   4.367828   4.345957
    36  H    3.951109   3.959517   3.173486   2.027974   2.011311
                    6          7          8          9         10
     6  C    0.000000
     7  C    2.478500   0.000000
     8  C    3.723392   1.368418   0.000000
     9  C    4.222050   2.415577   1.414587   0.000000
    10  C    3.740330   2.801368   2.415766   1.368505   0.000000
    11  H    2.143406   4.618618   5.819854   6.113442   5.317024
    12  H    3.395857   5.316855   6.113351   5.819680   4.618451
    13  H    3.896832   4.613905   4.856550   4.064892   2.702285
    14  H    1.095825   2.702173   4.064715   4.856352   4.613922
    15  H    2.702178   1.095684   2.147617   3.416795   3.897029
    16  H    4.618650   2.143454   1.094878   2.168433   3.395986
    17  H    5.316733   3.395776   2.168406   1.094798   2.143328
    18  H    4.613940   3.897065   3.416953   2.147687   1.095719
    19  C    5.106328   6.163690   6.815484   6.805402   6.141668
    20  C    3.832866   5.171858   5.939197   5.927488   5.145281
    21  C    2.987224   3.899236   4.583965   4.576050   3.880892
    22  C    3.784200   3.793525   4.156746   4.156615   3.793343
    23  C    5.066269   5.059348   5.330900   5.330951   5.059528
    24  C    5.609289   6.120877   6.568284   6.563008   6.109729
    25  C    6.088246   5.548584   5.539611   5.546102   5.561470
    26  C    6.083483   4.995207   4.704822   4.719507   5.022622
    27  C    5.062121   3.702654   3.310490   3.331083   3.739128
    28  C    3.811035   2.919512   2.924985   2.936712   2.942848
    29  H    5.896365   7.167598   7.876591   7.864440   7.141198
    30  H    3.851455   5.629153   6.516859   6.501949   5.594998
    31  H    2.091417   3.274591   4.069867   4.060853   3.252488
    32  H    6.674617   7.099321   7.483748   7.479233   7.089954
    33  H    7.079072   6.615581   6.605657   6.611160   6.626508
    34  H    7.073056   5.759691   5.301009   5.319236   5.792916
    35  H    5.486083   3.672987   2.921310   2.953772   3.724114
    36  H    3.152443   2.021788   2.047010   2.063314   2.054510
                   11         12         13         14         15
    11  H    0.000000
    12  H    2.476999   0.000000
    13  H    4.307171   2.486870   0.000000
    14  H    2.487222   4.307258   4.992616   0.000000
    15  H    4.775919   5.930815   5.566523   2.461600   0.000000
    16  H    6.753072   7.192810   5.931008   4.776016   2.487316
    17  H    7.192800   6.752764   4.776065   5.930745   4.307044
    18  H    5.931168   4.775988   2.462002   5.566694   4.992708
    19  C    5.022024   4.998067   5.475993   5.520016   6.504250
    20  C    3.703438   3.670500   4.312632   4.369049   5.573426
    21  C    3.596817   3.579117   3.604870   3.640073   4.414442
    22  C    4.867940   4.867687   4.309021   4.309333   4.317407
    23  C    5.930035   5.930065   5.469787   5.469510   5.463095
    24  C    5.976547   5.966381   5.961847   5.982249   6.461181
    25  C    7.206113   7.214774   6.441595   6.421741   5.916173
    26  C    7.540496   7.556444   6.449792   6.411683   5.397658
    27  C    6.734494   6.752136   5.496556   5.452314   4.230017
    28  C    5.398510   5.409548   4.352410   4.324286   3.569231
    29  H    5.464618   5.433959   6.208554   6.262655   7.464208
    30  H    3.117036   3.062162   4.313439   4.392091   6.002387
    31  H    2.885921   2.863591   2.905798   2.949828   3.873833
    32  H    6.995430   6.986964   6.973829   6.990839   7.394678
    33  H    8.064292   8.072116   7.385295   7.367799   6.926750
    34  H    8.603585   8.623147   7.399668   7.353230   6.109855
    35  H    7.340072   7.362654   5.900598   5.843118   4.201009
    36  H    4.942482   4.954232   3.788553   3.757021   2.881720
                   16         17         18         19         20
    16  H    0.000000
    17  H    2.476605   0.000000
    18  H    4.307173   2.487106   0.000000
    19  C    7.595274   7.579355   6.467153   0.000000
    20  C    6.823958   6.806026   5.529573   1.414585   0.000000
    21  C    5.481650   5.469976   4.385683   2.415624   1.368418
    22  C    4.887584   4.887323   4.317207   2.801301   2.419049
    23  C    5.913836   5.913861   5.463458   2.419140   2.801093
    24  C    7.215879   7.207406   6.442445   1.368446   2.415507
    25  C    5.900546   5.911179   5.937712   3.723497   4.222125
    26  C    4.899785   4.924434   5.442780   4.838181   5.040664
    27  C    3.589856   3.623033   4.286778   5.040717   4.838081
    28  C    3.576853   3.593581   3.603250   4.222291   3.723454
    29  H    8.666630   8.647211   7.419119   1.094848   2.168539
    30  H    7.458918   7.436012   5.945386   2.168562   1.094842
    31  H    5.062241   5.049461   3.840668   3.416857   2.147594
    32  H    8.054439   8.047039   7.378727   2.147693   3.416840
    33  H    6.909235   6.918416   6.945352   4.064759   4.856333
    34  H    5.300867   5.332743   6.165521   5.819958   6.113452
    35  H    2.937575   2.993877   4.280394   6.113408   5.819744
    36  H    2.913288   2.933287   2.922710   4.856708   4.064984
                   21         22         23         24         25
    21  C    0.000000
    22  C    1.421025   0.000000
    23  C    2.443113   1.410086   0.000000
    24  C    2.801068   2.443277   1.421127   0.000000
    25  C    3.740259   2.443369   1.421166   2.478500   0.000000
    26  C    4.222125   2.801239   2.419043   3.723392   1.368418
    27  C    3.723398   2.419033   2.801059   4.222050   2.415577
    28  C    2.478506   1.421127   2.443277   3.740330   2.801368
    29  H    3.395916   3.895958   3.418418   2.143406   4.618618
    30  H    2.143227   3.418217   3.895749   3.395857   5.316855
    31  H    1.095787   2.173370   3.429759   3.896832   4.613905
    32  H    3.896869   3.429910   2.173467   1.095825   2.702173
    33  H    4.613711   3.429869   2.173416   2.702178   1.095684
    34  H    5.316887   3.895924   3.418415   4.618650   2.143454
    35  H    4.618520   3.418249   3.895666   5.316733   3.395776
    36  H    2.702439   2.173494   3.429884   4.613940   3.897065
                   26         27         28         29         30
    26  C    0.000000
    27  C    1.414587   0.000000
    28  C    2.415766   1.368505   0.000000
    29  H    5.819854   6.113442   5.317024   0.000000
    30  H    6.113351   5.819680   4.618451   2.476999   0.000000
    31  H    4.856550   4.064892   2.702285   4.307171   2.486870
    32  H    4.064715   4.856352   4.613922   2.487222   4.307258
    33  H    2.147617   3.416795   3.897029   4.775919   5.930815
    34  H    1.094878   2.168433   3.395986   6.753072   7.192810
    35  H    2.168406   1.094798   2.143328   7.192800   6.752764
    36  H    3.416953   2.147687   1.095719   5.931168   4.775988
                   31         32         33         34         35
    31  H    0.000000
    32  H    4.992616   0.000000
    33  H    5.566523   2.461600   0.000000
    34  H    5.931008   4.776016   2.487316   0.000000
    35  H    4.776065   5.930745   4.307044   2.476605   0.000000
    36  H    2.462002   5.566694   4.992708   4.307173   2.487106
                   36
    36  H    0.000000
 Stoichiometry    C20H16
 Framework group  C1[X(C20H16)]
 Deg. of freedom   102
 Full point group                 C1      NOp   1
 Largest Abelian subgroup         C1      NOp   1
 Largest concise Abelian subgroup C1      NOp   1
                         Standard orientation:                         
 ---------------------------------------------------------------------
 Center     Atomic      Atomic             Coordinates (Angstroms)
 Number     Number       Type             X           Y           Z
 ---------------------------------------------------------------------
      1          6           0        1.964469    2.438990   -0.738035
      2          6           0        1.964154    2.456927    0.676437
      3          6           0        1.981300    1.286182    1.384697
      4          6           0        1.999628    0.038308    0.705148
      5          6           0        1.999942    0.020338   -0.704823
      6          6           0        1.981925    1.250501   -1.416144
      7          6           0        2.018270   -1.227533   -1.384672
      8          6           0        2.035416   -2.398278   -0.676412
      9          6           0        2.035100   -2.380241    0.738060
     10          6           0        2.017645   -1.191854    1.416469
     11          1           0        1.950548    3.389432   -1.281319
     12          1           0        1.949998    3.420810    1.195480
     13          1           0        1.981177    1.291877    2.480469
     14          1           0        1.982293    1.228106   -2.511739
     15          1           0        2.018390   -1.233029   -2.480343
     16          1           0        2.049575   -3.362364   -1.195157
     17          1           0        2.049020   -3.330683    1.281245
     18          1           0        2.017279   -1.169659    2.511963
     19          6           0       -2.790875    2.363651    0.017682
     20          6           0       -1.377144    2.412789    0.017944
     21          6           0       -0.643227    1.257860    0.009349
     22          6           0       -1.295079   -0.004801    0.000058
     23          6           0       -2.704311   -0.053873   -0.000203
     24          6           0       -3.442599    1.160396    0.008830
     25          6           0       -3.356463   -1.316539   -0.009495
     26          6           0       -2.622546   -2.471468   -0.018089
     27          6           0       -1.208816   -2.422230   -0.017827
     28          6           0       -0.556791   -1.219071   -0.008976
     29          1           0       -3.354997    3.301953    0.024662
     30          1           0       -0.879492    3.387966    0.025120
     31          1           0        0.452153    1.287727    0.009491
     32          1           0       -4.537434    1.113836    0.008565
     33          1           0       -4.451746   -1.346205   -0.009635
     34          1           0       -3.119895   -3.446840   -0.025267
     35          1           0       -0.644794   -3.360533   -0.024807
     36          1           0        0.537947   -1.172712   -0.008712
 ---------------------------------------------------------------------
 Rotational constants (GHZ):           0.5185561           0.3750367           0.2527916
 Standard basis: 6-31G(d) (6D, 7F)
 There are   332 symmetry adapted cartesian basis functions of A   symmetry.
 There are   332 symmetry adapted basis functions of A   symmetry.
   332 basis functions,   624 primitive gaussians,   332 cartesian basis functions
    68 alpha electrons       68 beta electrons
       nuclear repulsion energy      1457.4341270436 Hartrees.
 NAtoms=   36 NActive=   36 NUniq=   36 SFac= 1.00D+00 NAtFMM=   60 NAOKFM=F Big=F
 Integral buffers will be    131072 words long.
 Raffenetti 2 integral format.
 Two-electron integral symmetry is turned on.
 Nuclear repulsion after empirical dispersion term =     1457.4024204144 Hartrees.
 One-electron integrals computed using PRISM.
 NBasis=   332 RedAO= T EigKep=  2.63D-04  NBF=   332
 NBsUse=   332 1.00D-06 EigRej= -1.00D+00 NBFU=   332
 ExpMin= 1.61D-01 ExpMax= 3.05D+03 ExpMxC= 4.57D+02 IAcc=3 IRadAn=         5 AccDes= 0.00D+00
 Harris functional with IExCor= 4639 and IRadAn=       5 diagonalized for initial guess.
 HarFok:  IExCor= 4639 AccDes= 0.00D+00 IRadAn=         5 IDoV= 1 UseB2=F ITyADJ=14
 ICtDFT=  3500011 ScaDFX=  1.000000  1.000000  1.000000  1.000000
 FoFCou: FMM=F IPFlag=           0 FMFlag=      100000 FMFlg1=           0
         NFxFlg=           0 DoJE=T BraDBF=F KetDBF=T FulRan=T
         wScrn=  0.000000 ICntrl=       500 IOpCl=  0 I1Cent=   200000004 NGrid=           0
         NMat0=    1 NMatS0=      1 NMatT0=    0 NMatD0=    1 NMtDS0=    0 NMtDT0=    0
 Petite list used in FoFCou.
 Requested convergence on RMS density matrix=1.00D-08 within 128 cycles.
 Requested convergence on MAX density matrix=1.00D-06.
 Requested convergence on             energy=1.00D-06.
 No special actions if energy rises.
 Integral accuracy reduced to 1.0D-05 until final iterations.
 Initial convergence to 1.0D-05 achieved.  Increase integral accuracy.
 SCF Done:  E(RwB97XD) =  -771.450700226     A.U. after   14 cycles
            NFock= 14  Conv=0.84D-08     -V/T= 2.0090

 **********************************************************************

            Population analysis using the SCF Density.

 **********************************************************************

 Orbital symmetries:
       Occupied  (A) (A) (A) (A) (A) (A) (A) (A) (A) (A) (A) (A)
                 (A) (A) (A) (A) (A) (A) (A) (A) (A) (A) (A) (A)
                 (A) (A) (A) (A) (A) (A) (A) (A) (A) (A) (A) (A)
                 (A) (A) (A) (A) (A) (A) (A) (A) (A) (A) (A) (A)
                 (A) (A) (A) (A) (A) (A) (A) (A) (A) (A) (A) (A)
                 (A) (A) (A) (A) (A) (A) (A) (A)
       Virtual   (A) (A) (A) (A) (A) (A) (A) (A) (A) (A) (A) (A)
                 (A) (A) (A) (A) (A) (A) (A) (A) (A) (A) (A) (A)
                 (A) (A) (A) (A) (A) (A) (A) (A) (A) (A) (A) (A)
                 (A) (A) (A) (A) (A) (A) (A) (A) (A) (A) (A) (A)
                 (A) (A) (A) (A) (A) (A) (A) (A) (A) (A) (A) (A)
                 (A) (A) (A) (A) (A) (A) (A) (A) (A) (A) (A) (A)
                 (A) (A) (A) (A) (A) (A) (A) (A) (A) (A) (A) (A)
                 (A) (A) (A) (A) (A) (A) (A) (A) (A) (A) (A) (A)
                 (A) (A) (A) (A) (A) (A) (A) (A) (A) (A) (A) (A)
                 (A) (A) (A) (A) (A) (A) (A) (A) (A) (A) (A) (A)
                 (A) (A) (A) (A) (A) (A) (A) (A) (A) (A) (A) (A)
                 (A) (A) (A) (A) (A) (A) (A) (A) (A) (A) (A) (A)
                 (A) (A) (A) (A) (A) (A) (A) (A) (A) (A) (A) (A)
                 (A) (A) (A) (A) (A) (A) (A) (A) (A) (A) (A) (A)
                 (A) (A) (A) (A) (A) (A) (A) (A) (A) (A) (A) (A)
                 (A) (A) (A) (A) (A) (A) (A) (A) (A) (A) (A) (A)
                 (A) (A) (A) (A) (A) (A) (A) (A) (A) (A) (A) (A)
                 (A) (A) (A) (A) (A) (A) (A) (A) (A) (A) (A) (A)
                 (A) (A) (A) (A) (A) (A) (A) (A) (A) (A) (A) (A)
                 (A) (A) (A) (A) (A) (A) (A) (A) (A) (A) (A) (A)
                 (A) (A) (A) (A) (A) (A) (A) (A) (A) (A) (A) (A)
                 (A) (A) (A) (A) (A) (A) (A) (A) (A) (A) (A) (A)
 The electronic state is 1-A.
 Alpha  occ. eigenvalues --  -10.32023 -10.31970 -10.31423 -10.31412 -10.31387
 Alpha  occ. eigenvalues --  -10.31375 -10.31259 -10.31211 -10.31191 -10.31142
 Alpha  occ. eigenvalues --  -10.28855 -10.28596 -10.28584 -10.28380 -10.28372
 Alpha  occ. eigenvalues --  -10.28351 -10.28116 -10.28066 -10.27032 -10.26961
 Alpha  occ. eigenvalues --   -0.99869  -0.95504  -0.94045  -0.90065  -0.88487
 Alpha  occ. eigenvalues --   -0.85286  -0.85064  -0.82806  -0.81864  -0.79516
 Alpha  occ. eigenvalues --   -0.73108  -0.71336  -0.70442  -0.69785  -0.68260
 Alpha  occ. eigenvalues --   -0.67270  -0.62090  -0.60585  -0.59417  -0.58492
 Alpha  occ. eigenvalues --   -0.57625  -0.56508  -0.54535  -0.54390  -0.53703
 Alpha  occ. eigenvalues --   -0.51146  -0.50986  -0.50677  -0.49523  -0.49250
 Alpha  occ. eigenvalues --   -0.47697  -0.46869  -0.46261  -0.45848  -0.45162
 Alpha  occ. eigenvalues --   -0.43699  -0.42512  -0.42125  -0.39469  -0.39440
 Alpha  occ. eigenvalues --   -0.38609  -0.38376  -0.36774  -0.33543  -0.33142
 Alpha  occ. eigenvalues --   -0.30677  -0.29686  -0.25793
 Alpha virt. eigenvalues --    0.01812   0.04361   0.05159   0.08332   0.09012
 Alpha virt. eigenvalues --    0.12858   0.15956   0.17004   0.17839   0.19328
 Alpha virt. eigenvalues --    0.19464   0.20672   0.21613   0.23248   0.24595
 Alpha virt. eigenvalues --    0.24667   0.25166   0.25241   0.27599   0.27725
 Alpha virt. eigenvalues --    0.27790   0.28448   0.29140   0.31167   0.31367
 Alpha virt. eigenvalues --    0.33973   0.34913   0.35083   0.35789   0.37652
 Alpha virt. eigenvalues --    0.37980   0.38356   0.39477   0.39625   0.41235
 Alpha virt. eigenvalues --    0.42413   0.42884   0.42978   0.44058   0.45838
 Alpha virt. eigenvalues --    0.54399   0.55963   0.57315   0.57769   0.57902
 Alpha virt. eigenvalues --    0.59260   0.60175   0.60655   0.60946   0.61626
 Alpha virt. eigenvalues --    0.61918   0.62522   0.63311   0.63642   0.63927
 Alpha virt. eigenvalues --    0.64222   0.66281   0.66418   0.66458   0.67361
 Alpha virt. eigenvalues --    0.67903   0.68582   0.68642   0.69114   0.69552
 Alpha virt. eigenvalues --    0.70488   0.70786   0.71001   0.72205   0.72435
 Alpha virt. eigenvalues --    0.72624   0.72673   0.73145   0.74815   0.76185
 Alpha virt. eigenvalues --    0.77354   0.79045   0.80232   0.81902   0.83070
 Alpha virt. eigenvalues --    0.83646   0.86070   0.88069   0.88816   0.90149
 Alpha virt. eigenvalues --    0.90564   0.90914   0.91910   0.93292   0.93473
 Alpha virt. eigenvalues --    0.93629   0.93766   0.93846   0.94028   0.94150
 Alpha virt. eigenvalues --    0.96156   0.96377   0.97060   0.98010   1.00608
 Alpha virt. eigenvalues --    1.00704   1.02362   1.05112   1.05248   1.06419
 Alpha virt. eigenvalues --    1.06762   1.07209   1.07552   1.08374   1.09609
 Alpha virt. eigenvalues --    1.10096   1.10618   1.15238   1.15527   1.16557
 Alpha virt. eigenvalues --    1.19856   1.20031   1.21450   1.21794   1.22855
 Alpha virt. eigenvalues --    1.24405   1.27229   1.28051   1.29125   1.31722
 Alpha virt. eigenvalues --    1.32086   1.34097   1.36110   1.36200   1.36913
 Alpha virt. eigenvalues --    1.38339   1.39014   1.40411   1.42598   1.43522
 Alpha virt. eigenvalues --    1.46105   1.49236   1.53259   1.53704   1.53881
 Alpha virt. eigenvalues --    1.55472   1.55732   1.55882   1.56823   1.56957
 Alpha virt. eigenvalues --    1.57843   1.58261   1.59348   1.59536   1.60017
 Alpha virt. eigenvalues --    1.61690   1.63154   1.63996   1.64155   1.65629
 Alpha virt. eigenvalues --    1.70320   1.79601   1.84234   1.86426   1.87319
 Alpha virt. eigenvalues --    1.90375   1.91222   1.92946   1.96591   1.97039
 Alpha virt. eigenvalues --    1.97586   1.98872   1.98951   1.99681   2.01686
 Alpha virt. eigenvalues --    2.02373   2.02716   2.03193   2.04092   2.06457
 Alpha virt. eigenvalues --    2.06900   2.07254   2.08292   2.10425   2.11069
 Alpha virt. eigenvalues --    2.12858   2.13039   2.14734   2.18188   2.20571
 Alpha virt. eigenvalues --    2.23345   2.25702   2.26198   2.26425   2.27339
 Alpha virt. eigenvalues --    2.27464   2.28721   2.28789   2.30208   2.31036
 Alpha virt. eigenvalues --    2.31958   2.33459   2.33951   2.35977   2.38356
 Alpha virt. eigenvalues --    2.38990   2.40256   2.40431   2.41134   2.43612
 Alpha virt. eigenvalues --    2.44123   2.46735   2.46823   2.47348   2.49905
 Alpha virt. eigenvalues --    2.50773   2.65511   2.69274   2.69319   2.70349
 Alpha virt. eigenvalues --    2.70607   2.72227   2.72698   2.73002   2.73602
 Alpha virt. eigenvalues --    2.76103   2.76602   2.77860   2.79333   2.80158
 Alpha virt. eigenvalues --    2.83934   2.87271   2.87521   2.87864   2.93150
 Alpha virt. eigenvalues --    2.93605   2.93724   2.96528   2.97801   3.00214
 Alpha virt. eigenvalues --    3.03003   3.03318   3.07990   3.17144   3.23278
 Alpha virt. eigenvalues --    3.44769   3.49596   3.56767   3.60887   4.21470
 Alpha virt. eigenvalues --    4.21618   4.23423   4.23725   4.25480   4.27346
 Alpha virt. eigenvalues --    4.28107   4.33675   4.34466   4.39472   4.41642
 Alpha virt. eigenvalues --    4.44392   4.47157   4.49235   4.56959   4.61182
 Alpha virt. eigenvalues --    4.62070   4.65519   4.89358   4.94536
          Condensed to atoms (all electrons):
               1          2          3          4          5          6
     1  C    4.937547   0.498965  -0.034365  -0.035192  -0.019645   0.546342
     2  C    0.498965   4.942159   0.546383  -0.020511  -0.035234  -0.033496
     3  C   -0.034365   0.546383   5.042212   0.484228  -0.041712  -0.060217
     4  C   -0.035192  -0.020511   0.484228   4.732430   0.527360  -0.040899
     5  C   -0.019645  -0.035234  -0.041712   0.527360   4.733744   0.484423
     6  C    0.546342  -0.033496  -0.060217  -0.040899   0.484423   5.035301
     7  C    0.007574  -0.000677   0.012602  -0.045284   0.482248  -0.072539
     8  C   -0.000405   0.000085  -0.000696  -0.035246  -0.020173   0.007602
     9  C    0.000086  -0.000405   0.007605  -0.019281  -0.035320  -0.000704
    10  C   -0.000687   0.007570  -0.072571   0.482340  -0.044289   0.012628
    11  H    0.369327  -0.035027   0.003360   0.000803   0.002234  -0.029460
    12  H   -0.034909   0.369448  -0.029514   0.002235   0.000806   0.003345
    13  H    0.003672  -0.035859   0.368149  -0.037418   0.003660   0.000324
    14  H   -0.035928   0.003668   0.000330   0.003653  -0.037499   0.367961
    15  H    0.000253   0.000009  -0.000137   0.003698  -0.037329  -0.005757
    16  H    0.000003  -0.000000   0.000009   0.000797   0.002212  -0.000153
    17  H   -0.000000   0.000003  -0.000154   0.002211   0.000796   0.000009
    18  H    0.000009   0.000253  -0.005727  -0.037400   0.003694  -0.000138
    19  C    0.000050   0.000045   0.000009  -0.000015  -0.000014   0.000008
    20  C   -0.001000  -0.001003  -0.000227   0.000534   0.000516  -0.000286
    21  C   -0.024185  -0.026241  -0.021987  -0.011167  -0.010103  -0.019052
    22  C    0.001171   0.001342   0.000527  -0.003944  -0.003927   0.000332
    23  C    0.000004   0.000004  -0.000006  -0.000067  -0.000067  -0.000001
    24  C   -0.000014  -0.000015  -0.000007  -0.000002  -0.000002  -0.000006
    25  C    0.000001   0.000001   0.000001  -0.000005  -0.000005   0.000001
    26  C    0.000000   0.000000  -0.000001  -0.000021  -0.000022  -0.000001
    27  C   -0.000001  -0.000001  -0.000017   0.000745   0.000776  -0.000016
    28  C    0.000038   0.000013  -0.000465  -0.017078  -0.018603  -0.000449
    29  H    0.000003   0.000003   0.000001   0.000000   0.000000   0.000001
    30  H    0.001819   0.002161   0.000113  -0.000003  -0.000009   0.000084
    31  H   -0.008902  -0.010249  -0.004916  -0.011523  -0.010807  -0.003616
    32  H   -0.000000  -0.000000  -0.000000  -0.000000  -0.000000  -0.000000
    33  H   -0.000000  -0.000000  -0.000000  -0.000000  -0.000000  -0.000000
    34  H   -0.000000  -0.000000   0.000000   0.000000   0.000000   0.000000
    35  H    0.000000   0.000000   0.000000   0.000007   0.000020   0.000000
    36  H   -0.000163  -0.000164  -0.002769  -0.014705  -0.016046  -0.002975
               7          8          9         10         11         12
     1  C    0.007574  -0.000405   0.000086  -0.000687   0.369327  -0.034909
     2  C   -0.000677   0.000085  -0.000405   0.007570  -0.035027   0.369448
     3  C    0.012602  -0.000696   0.007605  -0.072571   0.003360  -0.029514
     4  C   -0.045284  -0.035246  -0.019281   0.482340   0.000803   0.002235
     5  C    0.482248  -0.020173  -0.035320  -0.044289   0.002234   0.000806
     6  C   -0.072539   0.007602  -0.000704   0.012628  -0.029460   0.003345
     7  C    5.045349   0.547159  -0.033235  -0.059747  -0.000154   0.000009
     8  C    0.547159   4.936423   0.498002  -0.032440   0.000003  -0.000000
     9  C   -0.033235   0.498002   4.932682   0.547041  -0.000000   0.000003
    10  C   -0.059747  -0.032440   0.547041   5.038046   0.000009  -0.000154
    11  H   -0.000154   0.000003  -0.000000   0.000009   0.520066  -0.003747
    12  H    0.000009  -0.000000   0.000003  -0.000154  -0.003747   0.520061
    13  H   -0.000142   0.000009   0.000254  -0.005624  -0.000133  -0.003889
    14  H   -0.005601   0.000254   0.000009  -0.000142  -0.003876  -0.000133
    15  H    0.368246  -0.035786   0.003674   0.000304  -0.000009  -0.000000
    16  H   -0.029411   0.369280  -0.035134   0.003339  -0.000000  -0.000000
    17  H    0.003355  -0.035218   0.369192  -0.029349  -0.000000  -0.000000
    18  H    0.000311   0.003670  -0.035884   0.368041  -0.000000  -0.000009
    19  C   -0.000001   0.000000   0.000000  -0.000001   0.000003   0.000004
    20  C   -0.000017  -0.000001  -0.000000  -0.000017   0.000201   0.000207
    21  C   -0.000434  -0.000059  -0.000035  -0.000416   0.000170   0.000178
    22  C    0.000649   0.001451   0.001281   0.000444  -0.000029  -0.000032
    23  C    0.000003   0.000009   0.000008   0.000008  -0.000001  -0.000001
    24  C    0.000001   0.000000   0.000000   0.000001   0.000000   0.000000
    25  C   -0.000009  -0.000017  -0.000016  -0.000007   0.000000   0.000000
    26  C    0.000007   0.000048   0.000055   0.000005  -0.000000  -0.000000
    27  C   -0.000530  -0.002690  -0.002616  -0.000543  -0.000000  -0.000000
    28  C   -0.025229  -0.023291  -0.021622  -0.022242   0.000002   0.000002
    29  H    0.000000  -0.000000  -0.000000   0.000000  -0.000000  -0.000000
    30  H    0.000000   0.000000   0.000000   0.000000   0.000204   0.000265
    31  H   -0.001800  -0.000112  -0.000116  -0.001897  -0.000295  -0.000389
    32  H   -0.000000  -0.000000  -0.000000  -0.000000   0.000000   0.000000
    33  H   -0.000000  -0.000000  -0.000000  -0.000000   0.000000   0.000000
    34  H    0.000001   0.000004   0.000003   0.000001  -0.000000  -0.000000
    35  H    0.000101   0.002536   0.002068   0.000083  -0.000000  -0.000000
    36  H   -0.005688  -0.010140  -0.008582  -0.004250  -0.000002  -0.000003
              13         14         15         16         17         18
     1  C    0.003672  -0.035928   0.000253   0.000003  -0.000000   0.000009
     2  C   -0.035859   0.003668   0.000009  -0.000000   0.000003   0.000253
     3  C    0.368149   0.000330  -0.000137   0.000009  -0.000154  -0.005727
     4  C   -0.037418   0.003653   0.003698   0.000797   0.002211  -0.037400
     5  C    0.003660  -0.037499  -0.037329   0.002212   0.000796   0.003694
     6  C    0.000324   0.367961  -0.005757  -0.000153   0.000009  -0.000138
     7  C   -0.000142  -0.005601   0.368246  -0.029411   0.003355   0.000311
     8  C    0.000009   0.000254  -0.035786   0.369280  -0.035218   0.003670
     9  C    0.000254   0.000009   0.003674  -0.035134   0.369192  -0.035884
    10  C   -0.005624  -0.000142   0.000304   0.003339  -0.029349   0.368041
    11  H   -0.000133  -0.003876  -0.000009  -0.000000  -0.000000  -0.000000
    12  H   -0.003889  -0.000133  -0.000000  -0.000000  -0.000000  -0.000009
    13  H    0.523251   0.000014   0.000002  -0.000000  -0.000009   0.004663
    14  H    0.000014   0.523625   0.004664  -0.000009  -0.000000   0.000002
    15  H    0.000002   0.004664   0.522498  -0.003879  -0.000133   0.000014
    16  H   -0.000000  -0.000009  -0.003879   0.519805  -0.003734  -0.000133
    17  H   -0.000009  -0.000000  -0.000133  -0.003734   0.519806  -0.003872
    18  H    0.004663   0.000002   0.000014  -0.000133  -0.003872   0.522949
    19  C    0.000000   0.000000   0.000000  -0.000000  -0.000000   0.000000
    20  C    0.000007   0.000001   0.000000  -0.000000  -0.000000   0.000000
    21  C    0.000344   0.000261  -0.000023   0.000002   0.000001  -0.000027
    22  C    0.000019   0.000026  -0.000003  -0.000030  -0.000027   0.000005
    23  C    0.000000   0.000001  -0.000000  -0.000001  -0.000001   0.000000
    24  C    0.000000   0.000000  -0.000000   0.000000   0.000000  -0.000000
    25  C   -0.000000  -0.000000   0.000000   0.000000   0.000000   0.000000
    26  C    0.000000   0.000000   0.000001   0.000004   0.000003   0.000001
    27  C    0.000000   0.000000   0.000034   0.000174   0.000181   0.000024
    28  C   -0.000043  -0.000048   0.000406   0.000094   0.000094   0.000321
    29  H   -0.000000  -0.000000   0.000000  -0.000000  -0.000000   0.000000
    30  H   -0.000007  -0.000005  -0.000000  -0.000000  -0.000000  -0.000000
    31  H   -0.000011   0.000032   0.000031  -0.000002  -0.000002   0.000035
    32  H    0.000000   0.000000   0.000000   0.000000   0.000000   0.000000
    33  H    0.000000  -0.000000   0.000000   0.000000   0.000000   0.000000
    34  H    0.000000   0.000000  -0.000000  -0.000000  -0.000000  -0.000000
    35  H   -0.000000  -0.000000  -0.000011   0.000312   0.000239  -0.000009
    36  H    0.000053   0.000058   0.000016  -0.000223  -0.000161   0.000045
              19         20         21         22         23         24
     1  C    0.000050  -0.001000  -0.024185   0.001171   0.000004  -0.000014
     2  C    0.000045  -0.001003  -0.026241   0.001342   0.000004  -0.000015
     3  C    0.000009  -0.000227  -0.021987   0.000527  -0.000006  -0.000007
     4  C   -0.000015   0.000534  -0.011167  -0.003944  -0.000067  -0.000002
     5  C   -0.000014   0.000516  -0.010103  -0.003927  -0.000067  -0.000002
     6  C    0.000008  -0.000286  -0.019052   0.000332  -0.000001  -0.000006
     7  C   -0.000001  -0.000017  -0.000434   0.000649   0.000003   0.000001
     8  C    0.000000  -0.000001  -0.000059   0.001451   0.000009   0.000000
     9  C    0.000000  -0.000000  -0.000035   0.001281   0.000008   0.000000
    10  C   -0.000001  -0.000017  -0.000416   0.000444   0.000008   0.000001
    11  H    0.000003   0.000201   0.000170  -0.000029  -0.000001   0.000000
    12  H    0.000004   0.000207   0.000178  -0.000032  -0.000001   0.000000
    13  H    0.000000   0.000007   0.000344   0.000019   0.000000   0.000000
    14  H    0.000000   0.000001   0.000261   0.000026   0.000001   0.000000
    15  H    0.000000   0.000000  -0.000023  -0.000003  -0.000000  -0.000000
    16  H   -0.000000  -0.000000   0.000002  -0.000030  -0.000001   0.000000
    17  H   -0.000000  -0.000000   0.000001  -0.000027  -0.000001   0.000000
    18  H    0.000000   0.000000  -0.000027   0.000005   0.000000  -0.000000
    19  C    4.930287   0.477645  -0.013879  -0.045846  -0.008734   0.537650
    20  C    0.477645   4.982676   0.550354   0.008407  -0.046099  -0.027912
    21  C   -0.013879   0.550354   5.028103   0.471265  -0.048093  -0.062323
    22  C   -0.045846   0.008407   0.471265   4.731696   0.492741  -0.027476
    23  C   -0.008734  -0.046099  -0.048093   0.492741   4.748283   0.456547
    24  C    0.537650  -0.027912  -0.062323  -0.027476   0.456547   5.077330
    25  C    0.007527  -0.000538   0.013830  -0.027678   0.457257  -0.087328
    26  C   -0.000383   0.000093  -0.001389  -0.046159  -0.008437   0.007514
    27  C    0.000093  -0.000443   0.011107   0.008532  -0.046199  -0.000501
    28  C   -0.001359   0.011044  -0.074357   0.472195  -0.047247   0.013837
    29  H    0.362605  -0.035223   0.002545   0.001309   0.001630  -0.031918
    30  H   -0.041035   0.366624  -0.035600   0.003220   0.000678   0.003772
    31  H    0.007707  -0.079368   0.331377  -0.058835   0.009461   0.000012
    32  H   -0.038132   0.003370   0.000687   0.002764  -0.038409   0.363630
    33  H    0.000259   0.000005  -0.000165   0.002756  -0.038468  -0.005128
    34  H    0.000003  -0.000001   0.000017   0.001310   0.001631  -0.000179
    35  H   -0.000000   0.000003  -0.000125   0.003239   0.000652   0.000011
    36  H   -0.000013   0.000330  -0.023042  -0.060686   0.009939  -0.000213
              25         26         27         28         29         30
     1  C    0.000001   0.000000  -0.000001   0.000038   0.000003   0.001819
     2  C    0.000001   0.000000  -0.000001   0.000013   0.000003   0.002161
     3  C    0.000001  -0.000001  -0.000017  -0.000465   0.000001   0.000113
     4  C   -0.000005  -0.000021   0.000745  -0.017078   0.000000  -0.000003
     5  C   -0.000005  -0.000022   0.000776  -0.018603   0.000000  -0.000009
     6  C    0.000001  -0.000001  -0.000016  -0.000449   0.000001   0.000084
     7  C   -0.000009   0.000007  -0.000530  -0.025229   0.000000   0.000000
     8  C   -0.000017   0.000048  -0.002690  -0.023291  -0.000000   0.000000
     9  C   -0.000016   0.000055  -0.002616  -0.021622  -0.000000   0.000000
    10  C   -0.000007   0.000005  -0.000543  -0.022242   0.000000   0.000000
    11  H    0.000000  -0.000000  -0.000000   0.000002  -0.000000   0.000204
    12  H    0.000000  -0.000000  -0.000000   0.000002  -0.000000   0.000265
    13  H   -0.000000   0.000000   0.000000  -0.000043  -0.000000  -0.000007
    14  H   -0.000000   0.000000   0.000000  -0.000048  -0.000000  -0.000005
    15  H    0.000000   0.000001   0.000034   0.000406   0.000000  -0.000000
    16  H    0.000000   0.000004   0.000174   0.000094  -0.000000  -0.000000
    17  H    0.000000   0.000003   0.000181   0.000094  -0.000000  -0.000000
    18  H    0.000000   0.000001   0.000024   0.000321   0.000000  -0.000000
    19  C    0.007527  -0.000383   0.000093  -0.001359   0.362605  -0.041035
    20  C   -0.000538   0.000093  -0.000443   0.011044  -0.035223   0.366624
    21  C    0.013830  -0.001389   0.011107  -0.074357   0.002545  -0.035600
    22  C   -0.027678  -0.046159   0.008532   0.472195   0.001309   0.003220
    23  C    0.457257  -0.008437  -0.046199  -0.047247   0.001630   0.000678
    24  C   -0.087328   0.007514  -0.000501   0.013837  -0.031918   0.003772
    25  C    5.078004   0.537094  -0.028117  -0.062783  -0.000179   0.000011
    26  C    0.537094   4.931292   0.477034  -0.013033   0.000003  -0.000000
    27  C   -0.028117   0.477034   4.985356   0.551187  -0.000001   0.000003
    28  C   -0.062783  -0.013033   0.551187   5.028092   0.000017  -0.000131
    29  H   -0.000179   0.000003  -0.000001   0.000017   0.551457  -0.003364
    30  H    0.000011  -0.000000   0.000003  -0.000131  -0.003364   0.574649
    31  H   -0.000198  -0.000014   0.000376  -0.021831  -0.000236  -0.010292
    32  H   -0.005152   0.000259   0.000004  -0.000162  -0.003785  -0.000162
    33  H    0.363640  -0.038060   0.003352   0.000704  -0.000010  -0.000000
    34  H   -0.032069   0.362376  -0.035041   0.002559  -0.000000  -0.000000
    35  H    0.003845  -0.041058   0.366916  -0.036583  -0.000000  -0.000000
    36  H    0.000013   0.008058  -0.082164   0.324698   0.000000  -0.000012
              31         32         33         34         35         36
     1  C   -0.008902  -0.000000  -0.000000  -0.000000   0.000000  -0.000163
     2  C   -0.010249  -0.000000  -0.000000  -0.000000   0.000000  -0.000164
     3  C   -0.004916  -0.000000  -0.000000   0.000000   0.000000  -0.002769
     4  C   -0.011523  -0.000000  -0.000000   0.000000   0.000007  -0.014705
     5  C   -0.010807  -0.000000  -0.000000   0.000000   0.000020  -0.016046
     6  C   -0.003616  -0.000000  -0.000000   0.000000   0.000000  -0.002975
     7  C   -0.001800  -0.000000  -0.000000   0.000001   0.000101  -0.005688
     8  C   -0.000112  -0.000000  -0.000000   0.000004   0.002536  -0.010140
     9  C   -0.000116  -0.000000  -0.000000   0.000003   0.002068  -0.008582
    10  C   -0.001897  -0.000000  -0.000000   0.000001   0.000083  -0.004250
    11  H   -0.000295   0.000000   0.000000  -0.000000  -0.000000  -0.000002
    12  H   -0.000389   0.000000   0.000000  -0.000000  -0.000000  -0.000003
    13  H   -0.000011   0.000000   0.000000   0.000000  -0.000000   0.000053
    14  H    0.000032   0.000000  -0.000000   0.000000  -0.000000   0.000058
    15  H    0.000031   0.000000   0.000000  -0.000000  -0.000011   0.000016
    16  H   -0.000002   0.000000   0.000000  -0.000000   0.000312  -0.000223
    17  H   -0.000002   0.000000   0.000000  -0.000000   0.000239  -0.000161
    18  H    0.000035   0.000000   0.000000  -0.000000  -0.000009   0.000045
    19  C    0.007707  -0.038132   0.000259   0.000003  -0.000000  -0.000013
    20  C   -0.079368   0.003370   0.000005  -0.000001   0.000003   0.000330
    21  C    0.331377   0.000687  -0.000165   0.000017  -0.000125  -0.023042
    22  C   -0.058835   0.002764   0.002756   0.001310   0.003239  -0.060686
    23  C    0.009461  -0.038409  -0.038468   0.001631   0.000652   0.009939
    24  C    0.000012   0.363630  -0.005128  -0.000179   0.000011  -0.000213
    25  C   -0.000198  -0.005152   0.363640  -0.032069   0.003845   0.000013
    26  C   -0.000014   0.000259  -0.038060   0.362376  -0.041058   0.008058
    27  C    0.000376   0.000004   0.003352  -0.035041   0.366916  -0.082164
    28  C   -0.021831  -0.000162   0.000704   0.002559  -0.036583   0.324698
    29  H   -0.000236  -0.003785  -0.000010  -0.000000  -0.000000   0.000000
    30  H   -0.010292  -0.000162  -0.000000  -0.000000  -0.000000  -0.000012
    31  H    0.845793   0.000022   0.000003   0.000000  -0.000012   0.004651
    32  H    0.000022   0.553545   0.005271  -0.000010  -0.000000   0.000003
    33  H    0.000003   0.005271   0.553696  -0.003783  -0.000163   0.000023
    34  H    0.000000  -0.000010  -0.003783   0.552054  -0.003422  -0.000244
    35  H   -0.000012  -0.000000  -0.000163  -0.003422   0.577491  -0.011246
    36  H    0.004651   0.000003   0.000023  -0.000244  -0.011246   0.893131
 Mulliken charges:
               1
     1  C   -0.171468
     2  C   -0.173231
     3  C   -0.190041
     4  C    0.088716
     5  C    0.088317
     6  C   -0.188596
     7  C   -0.187120
     8  C   -0.170261
     9  C   -0.169012
    10  C   -0.185486
    11  H    0.176351
    12  H    0.176217
    13  H    0.178714
    14  H    0.178682
    15  H    0.179217
    16  H    0.176678
    17  H    0.176769
    18  H    0.179162
    19  C   -0.174483
    20  C   -0.209884
    21  C   -0.037539
    22  C    0.067990
    23  C    0.102972
    24  C   -0.217284
    25  C   -0.217126
    26  C   -0.175268
    27  C   -0.207012
    28  C   -0.018748
    29  H    0.155143
    30  H    0.137019
    31  H    0.025921
    32  H    0.156257
    33  H    0.156068
    34  H    0.154790
    35  H    0.135105
    36  H    0.002474
 Sum of Mulliken charges =  -0.00000
 Mulliken charges with hydrogens summed into heavy atoms:
               1
     1  C    0.004883
     2  C    0.002985
     3  C   -0.011327
     4  C    0.088716
     5  C    0.088317
     6  C   -0.009913
     7  C   -0.007904
     8  C    0.006417
     9  C    0.007757
    10  C   -0.006323
    19  C   -0.019341
    20  C   -0.072865
    21  C   -0.011618
    22  C    0.067990
    23  C    0.102972
    24  C   -0.061027
    25  C   -0.061059
    26  C   -0.020479
    27  C   -0.071908
    28  C   -0.016275
 Electronic spatial extent (au):  <R**2>=           4507.8182
 Charge=             -0.0000 electrons
 Dipole moment (field-independent basis, Debye):
    X=              1.8944    Y=             -0.0045    Z=              0.0005  Tot=              1.8944
 Quadrupole moment (field-independent basis, Debye-Ang):
   XX=           -115.4727   YY=           -101.0767   ZZ=           -110.8380
   XY=             -0.2968   XZ=             -0.0000   YZ=              0.0387
 Traceless Quadrupole moment (field-independent basis, Debye-Ang):
   XX=             -6.3435   YY=              8.0524   ZZ=             -1.7089
   XY=             -0.2968   XZ=             -0.0000   YZ=              0.0387
 Octapole moment (field-independent basis, Debye-Ang**2):
  XXX=            -56.2357  YYY=              0.2944  ZZZ=              0.0063  XYY=             10.7419
  XXY=             -1.3485  XXZ=              0.0048  XZZ=             29.2348  YZZ=              0.3500
  YYZ=             -0.0023  XYZ=             -0.2131
 Hexadecapole moment (field-independent basis, Debye-Ang**3):
 XXXX=          -3287.8967 YYYY=          -2114.2647 ZZZZ=           -517.4473 XXXY=             -2.9040
 XXXZ=             -0.0120 YYYX=             -3.4153 YYYZ=              0.2576 ZZZX=              0.0198
 ZZZY=             -0.8615 XXYY=           -897.9988 XXZZ=           -659.5801 YYZZ=           -482.7831
 XXYZ=              0.4988 YYXZ=              0.0044 ZZXY=             -0.2511
 N-N= 1.457402420414D+03 E-N=-4.701559824310D+03  KE= 7.645861926298D+02
 1\1\GINC-PADAWAN-X570S-UD\SP\RwB97XD\6-31G(d)\C20H16\PADAWAN\30-May-20
 22\0\\#n wB97xd/6-31G(d) SP\\Title\\0,1\C,0,2.4044,0.7559,0.\C,0,2.432
 8,-0.6584,0.\C,0,1.2672,-1.3753,0.\C,0,0.0142,-0.705,0.\C,0,-0.0142,0.
 7048,0.\C,0,1.2108,1.4252,0.\C,0,-1.2672,1.3754,0.\C,0,-2.4328,0.6585,
 0.\C,0,-2.4043,-0.7558,0.\C,0,-1.2108,-1.4254,0.\H,0,3.3509,1.3062,0.\
 H,0,3.4006,-1.1703,0.\H,0,1.281,-2.471,0.\H,0,1.1803,2.5206,0.\H,0,-1.
 2808,2.471,0.\H,0,-3.4008,1.1701,0.\H,0,-3.3508,-1.306,0.\H,0,-1.1805,
 -2.5207,0.\C,0,2.4044,-0.00001,4.75591\C,0,2.4328,-0.00001,3.34161\C,0
 ,1.2672,-0.00001,2.62471\C,0,0.0142,-0.00001,3.29501\C,0,-0.0142,-0.00
 001,4.70481\C,0,1.2108,-0.00001,5.42521\C,0,-1.2672,-0.00001,5.37541\C
 ,0,-2.4328,-0.00001,4.65851\C,0,-2.4043,-0.00001,3.24421\C,0,-1.2108,-
 0.00001,2.57461\H,0,3.3509,-0.00001,5.30621\H,0,3.4006,-0.00001,2.8297
 1\H,0,1.281,-0.00001,1.52901\H,0,1.1803,-0.00001,6.52061\H,0,-1.2808,-
 0.00001,6.47101\H,0,-3.4008,-0.00001,5.17011\H,0,-3.3508,-0.00001,2.69
 401\H,0,-1.1805,-0.00001,1.47931\\Version=EM64L-G16RevB.01\State=1-A\H
 F=-771.4507002\RMSD=8.390e-09\Dipole=-0.0126895,-0.0002553,-0.7452045\
 Quadrupole=5.9909702,-1.2705458,-4.7204245,0.0249175,0.0635771,0.00098
 2\PG=C01 [X(C20H16)]\\@


 AN AIRPLANE IS A COLLECTION OF SPARE PARTS
 FLYING IN CLOSE FORMATION.
 Job cpu time:       0 days  0 hours 15 minutes 19.9 seconds.
 Elapsed time:       0 days  0 hours  0 minutes 30.7 seconds.
 File lengths (MBytes):  RWF=     64 Int=      0 D2E=      0 Chk=      8 Scr=      1
 Normal termination of Gaussian 16 at Mon May 30 06:38:10 2022.
