 Entering Gaussian System, Link 0=g16
 Input=Naphthalene.com
 Output=Naphthalene.log
 Initial command:
 /usr/local/g16/l1.exe "/home/padawan/Ingrid/Naphthalene/Gau-5785.inp" -scrdir="/home/padawan/Ingrid/Naphthalene/"
 Entering Link 1 = /usr/local/g16/l1.exe PID=      5787.
  
 Copyright (c) 1988-2017, Gaussian, Inc.  All Rights Reserved.
  
 This is part of the Gaussian(R) 16 program.  It is based on
 the Gaussian(R) 09 system (copyright 2009, Gaussian, Inc.),
 the Gaussian(R) 03 system (copyright 2003, Gaussian, Inc.),
 the Gaussian(R) 98 system (copyright 1998, Gaussian, Inc.),
 the Gaussian(R) 94 system (copyright 1995, Gaussian, Inc.),
 the Gaussian 92(TM) system (copyright 1992, Gaussian, Inc.),
 the Gaussian 90(TM) system (copyright 1990, Gaussian, Inc.),
 the Gaussian 88(TM) system (copyright 1988, Gaussian, Inc.),
 the Gaussian 86(TM) system (copyright 1986, Carnegie Mellon
 University), and the Gaussian 82(TM) system (copyright 1983,
 Carnegie Mellon University). Gaussian is a federally registered
 trademark of Gaussian, Inc.
  
 This software contains proprietary and confidential information,
 including trade secrets, belonging to Gaussian, Inc.
  
 This software is provided under written license and may be
 used, copied, transmitted, or stored only in accord with that
 written license.
  
 The following legend is applicable only to US Government
 contracts under FAR:
  
                    RESTRICTED RIGHTS LEGEND
  
 Use, reproduction and disclosure by the US Government is
 subject to restrictions as set forth in subparagraphs (a)
 and (c) of the Commercial Computer Software - Restricted
 Rights clause in FAR 52.227-19.
  
 Gaussian, Inc.
 340 Quinnipiac St., Bldg. 40, Wallingford CT 06492
  
  
 ---------------------------------------------------------------
 Warning -- This program may not be used in any manner that
 competes with the business of Gaussian, Inc. or will provide
 assistance to any competitor of Gaussian, Inc.  The licensee
 of this program is prohibited from giving any competitor of
 Gaussian, Inc. access to this program.  By using this program,
 the user acknowledges that Gaussian, Inc. is engaged in the
 business of creating and licensing software in the field of
 computational chemistry and represents and warrants to the
 licensee that it is not a competitor of Gaussian, Inc. and that
 it will not use this program in any manner prohibited above.
 ---------------------------------------------------------------
  

 Cite this work as:
 Gaussian 16, Revision B.01,
 M. J. Frisch, G. W. Trucks, H. B. Schlegel, G. E. Scuseria, 
 M. A. Robb, J. R. Cheeseman, G. Scalmani, V. Barone, 
 G. A. Petersson, H. Nakatsuji, X. Li, M. Caricato, A. V. Marenich, 
 J. Bloino, B. G. Janesko, R. Gomperts, B. Mennucci, H. P. Hratchian, 
 J. V. Ortiz, A. F. Izmaylov, J. L. Sonnenberg, D. Williams-Young, 
 F. Ding, F. Lipparini, F. Egidi, J. Goings, B. Peng, A. Petrone, 
 T. Henderson, D. Ranasinghe, V. G. Zakrzewski, J. Gao, N. Rega, 
 G. Zheng, W. Liang, M. Hada, M. Ehara, K. Toyota, R. Fukuda, 
 J. Hasegawa, M. Ishida, T. Nakajima, Y. Honda, O. Kitao, H. Nakai, 
 T. Vreven, K. Throssell, J. A. Montgomery, Jr., J. E. Peralta, 
 F. Ogliaro, M. J. Bearpark, J. J. Heyd, E. N. Brothers, K. N. Kudin, 
 V. N. Staroverov, T. A. Keith, R. Kobayashi, J. Normand, 
 K. Raghavachari, A. P. Rendell, J. C. Burant, S. S. Iyengar, 
 J. Tomasi, M. Cossi, J. M. Millam, M. Klene, C. Adamo, R. Cammi, 
 J. W. Ochterski, R. L. Martin, K. Morokuma, O. Farkas, 
 J. B. Foresman, and D. J. Fox, Gaussian, Inc., Wallingford CT, 2016.
 
 ******************************************
 Gaussian 16:  EM64L-G16RevB.01 20-Dec-2017
                30-May-2022 
 ******************************************
 %nproc=30
 Will use up to   30 processors via shared memory.
 %mem=28GB
 %Chk=Naphthalene.chk
 ---------------------
 #n wB97xd/6-31G(d) SP
 ---------------------
 1/38=1,172=1/1;
 2/12=2,17=6,18=5,40=1/2;
 3/5=1,6=6,7=1,11=2,25=1,30=1,74=-58/1,2,3;
 4//1;
 5/5=2,38=5/2;
 6/7=2,8=2,9=2,10=2,28=1/1;
 99/5=1,9=1/99;
 -----
 Title
 -----
 Symbolic Z-matrix:
 Charge =  0 Multiplicity = 1
 C                     2.4044    0.7559    0. 
 C                     2.4328   -0.6584    0. 
 C                     1.2672   -1.3753    0. 
 C                     0.0142   -0.705     0. 
 C                    -0.0142    0.7048    0. 
 C                     1.2108    1.4252    0. 
 C                    -1.2672    1.3754    0. 
 C                    -2.4328    0.6585    0. 
 C                    -2.4043   -0.7558    0. 
 C                    -1.2108   -1.4254    0. 
 H                     3.3509    1.3062    0. 
 H                     3.4006   -1.1703    0. 
 H                     1.281    -2.471     0. 
 H                     1.1803    2.5206    0. 
 H                    -1.2808    2.471     0. 
 H                    -3.4008    1.1701    0. 
 H                    -3.3508   -1.306     0. 
 H                    -1.1805   -2.5207    0. 
 C                     2.4044    0.7559    4. 
 C                     2.4328   -0.6584    4. 
 C                     1.2672   -1.3753    4. 
 C                     0.0142   -0.705     4. 
 C                    -0.0142    0.7048    4. 
 C                     1.2108    1.4252    4. 
 C                    -1.2672    1.3754    4. 
 C                    -2.4328    0.6585    4. 
 C                    -2.4043   -0.7558    4. 
 C                    -1.2108   -1.4254    4. 
 H                     3.3509    1.3062    4. 
 H                     3.4006   -1.1703    4. 
 H                     1.281    -2.471     4. 
 H                     1.1803    2.5206    4. 
 H                    -1.2808    2.471     4. 
 H                    -3.4008    1.1701    4. 
 H                    -3.3508   -1.306     4. 
 H                    -1.1805   -2.5207    4. 
 
                          Input orientation:                          
 ---------------------------------------------------------------------
 Center     Atomic      Atomic             Coordinates (Angstroms)
 Number     Number       Type             X           Y           Z
 ---------------------------------------------------------------------
      1          6           0        2.404400    0.755900    0.000000
      2          6           0        2.432800   -0.658400    0.000000
      3          6           0        1.267200   -1.375300    0.000000
      4          6           0        0.014200   -0.705000    0.000000
      5          6           0       -0.014200    0.704800    0.000000
      6          6           0        1.210800    1.425200    0.000000
      7          6           0       -1.267200    1.375400    0.000000
      8          6           0       -2.432800    0.658500    0.000000
      9          6           0       -2.404300   -0.755800    0.000000
     10          6           0       -1.210800   -1.425400    0.000000
     11          1           0        3.350900    1.306200    0.000000
     12          1           0        3.400600   -1.170300    0.000000
     13          1           0        1.281000   -2.471000    0.000000
     14          1           0        1.180300    2.520600    0.000000
     15          1           0       -1.280800    2.471000    0.000000
     16          1           0       -3.400800    1.170100    0.000000
     17          1           0       -3.350800   -1.306000    0.000000
     18          1           0       -1.180500   -2.520700    0.000000
     19          6           0        2.404400    0.755900    4.000000
     20          6           0        2.432800   -0.658400    4.000000
     21          6           0        1.267200   -1.375300    4.000000
     22          6           0        0.014200   -0.705000    4.000000
     23          6           0       -0.014200    0.704800    4.000000
     24          6           0        1.210800    1.425200    4.000000
     25          6           0       -1.267200    1.375400    4.000000
     26          6           0       -2.432800    0.658500    4.000000
     27          6           0       -2.404300   -0.755800    4.000000
     28          6           0       -1.210800   -1.425400    4.000000
     29          1           0        3.350900    1.306200    4.000000
     30          1           0        3.400600   -1.170300    4.000000
     31          1           0        1.281000   -2.471000    4.000000
     32          1           0        1.180300    2.520600    4.000000
     33          1           0       -1.280800    2.471000    4.000000
     34          1           0       -3.400800    1.170100    4.000000
     35          1           0       -3.350800   -1.306000    4.000000
     36          1           0       -1.180500   -2.520700    4.000000
 ---------------------------------------------------------------------
                    Distance matrix (angstroms):
                    1          2          3          4          5
     1  C    0.000000
     2  C    1.414585   0.000000
     3  C    2.415624   1.368418   0.000000
     4  C    2.801301   2.419049   1.421025   0.000000
     5  C    2.419140   2.801093   2.443113   1.410086   0.000000
     6  C    1.368446   2.415507   2.801068   2.443277   1.421127
     7  C    3.723497   4.222125   3.740259   2.443369   1.421166
     8  C    4.838181   5.040664   4.222125   2.801239   2.419043
     9  C    5.040717   4.838081   3.723398   2.419033   2.801059
    10  C    4.222291   3.723454   2.478506   1.421127   2.443277
    11  H    1.094848   2.168539   3.395916   3.895958   3.418418
    12  H    2.168562   1.094842   2.143227   3.418217   3.895749
    13  H    3.416857   2.147594   1.095787   2.173370   3.429759
    14  H    2.147693   3.416840   3.896869   3.429910   2.173467
    15  H    4.064759   4.856333   4.613711   3.429869   2.173416
    16  H    5.819958   6.113452   5.316887   3.895924   3.418415
    17  H    6.113408   5.819744   4.618520   3.418249   3.895666
    18  H    4.856708   4.064984   2.702439   2.173494   3.429884
    19  C    4.000000   4.242765   4.672819   4.883368   4.674638
    20  C    4.242765   4.000000   4.227596   4.674591   4.883249
    21  C    4.672819   4.227596   4.000000   4.244916   4.687089
    22  C    4.883368   4.674591   4.244916   4.000000   4.241267
    23  C    4.674638   4.883249   4.687089   4.241267   4.000000
    24  C    4.227605   4.672759   4.883235   4.687174   4.244950
    25  C    5.464835   5.816042   5.476270   4.687222   4.244963
    26  C    6.277578   6.434927   5.816042   4.883333   4.674588
    27  C    6.434970   6.277501   5.464768   4.674583   4.883230
    28  C    5.816162   5.464806   4.705634   4.244950   4.687174
    29  H    4.147131   4.550007   5.247118   5.583770   5.261709
    30  H    4.550018   4.147129   4.537997   5.261579   5.583624
    31  H    5.260695   4.540062   4.147379   4.552311   5.269084
    32  H    4.540109   5.260684   5.584406   5.269183   4.552358
    33  H    5.702830   6.291579   6.106253   5.269156   4.552333
    34  H    7.062005   7.305772   6.653517   5.583747   5.261707
    35  H    7.305735   7.061828   6.109888   5.261599   5.583567
    36  H    6.291869   5.702990   4.827336   4.552370   5.269166
                    6          7          8          9         10
     6  C    0.000000
     7  C    2.478500   0.000000
     8  C    3.723392   1.368418   0.000000
     9  C    4.222050   2.415577   1.414587   0.000000
    10  C    3.740330   2.801368   2.415766   1.368505   0.000000
    11  H    2.143406   4.618618   5.819854   6.113442   5.317024
    12  H    3.395857   5.316855   6.113351   5.819680   4.618451
    13  H    3.896832   4.613905   4.856550   4.064892   2.702285
    14  H    1.095825   2.702173   4.064715   4.856352   4.613922
    15  H    2.702178   1.095684   2.147617   3.416795   3.897029
    16  H    4.618650   2.143454   1.094878   2.168433   3.395986
    17  H    5.316733   3.395776   2.168406   1.094798   2.143328
    18  H    4.613940   3.897065   3.416953   2.147687   1.095719
    19  C    4.227605   5.464835   6.277578   6.434970   5.816162
    20  C    4.672759   5.816042   6.434927   6.277501   5.464806
    21  C    4.883235   5.476270   5.816042   5.464768   4.705634
    22  C    4.687174   4.687222   4.883333   4.674583   4.244950
    23  C    4.244950   4.244963   4.674588   4.883230   4.687174
    24  C    4.000000   4.705631   5.464764   5.815987   5.476319
    25  C    4.705631   4.000000   4.227596   4.672795   4.883407
    26  C    5.464764   4.227596   4.000000   4.242765   4.672892
    27  C    5.815987   4.672795   4.242765   4.000000   4.227624
    28  C    5.476319   4.883407   4.672892   4.227624   4.000000
    29  H    4.538082   6.109962   7.061919   7.305763   6.653626
    30  H    5.247080   6.653491   7.305687   7.061776   6.109835
    31  H    5.584380   6.106400   6.291747   5.702924   4.827250
    32  H    4.147389   4.827188   5.702798   6.291594   6.106413
    33  H    4.827191   4.147351   4.540073   5.260655   5.584517
    34  H    6.109986   4.538105   4.147139   4.549956   5.247163
    35  H    6.653394   5.247027   4.549943   4.147117   4.538045
    36  H    6.106426   5.584542   5.260757   4.540106   4.147361
                   11         12         13         14         15
    11  H    0.000000
    12  H    2.476999   0.000000
    13  H    4.307171   2.486870   0.000000
    14  H    2.487222   4.307258   4.992616   0.000000
    15  H    4.775919   5.930815   5.566523   2.461600   0.000000
    16  H    6.753072   7.192810   5.931008   4.776016   2.487316
    17  H    7.192800   6.752764   4.776065   5.930745   4.307044
    18  H    5.931168   4.775988   2.462002   5.566694   4.992708
    19  C    4.147131   4.550018   5.260695   4.540109   5.702830
    20  C    4.550007   4.147129   4.540062   5.260684   6.291579
    21  C    5.247118   4.537997   4.147379   5.584406   6.106253
    22  C    5.583770   5.261579   4.552311   5.269183   5.269156
    23  C    5.261709   5.583624   5.269084   4.552358   4.552333
    24  C    4.538082   5.247080   5.584380   4.147389   4.827191
    25  C    6.109962   6.653491   6.106400   4.827188   4.147351
    26  C    7.061919   7.305687   6.291747   5.702798   4.540073
    27  C    7.305763   7.061776   5.702924   6.291594   5.260655
    28  C    6.653626   6.109835   4.827250   6.106413   5.584517
    29  H    4.000000   4.704840   5.878072   4.710231   6.229719
    30  H    4.704840   4.000000   4.710045   5.878135   7.153640
    31  H    5.878072   4.710045   4.000000   6.397360   6.854647
    32  H    4.710231   5.878135   6.397360   4.000000   4.696751
    33  H    6.229719   7.153640   6.854647   4.696751   4.000000
    34  H    7.848820   8.230220   7.153800   6.229794   4.710280
    35  H    8.230211   7.848555   6.229831   7.153582   5.877978
    36  H    7.153932   6.229772   4.696962   6.854785   6.397431
                   16         17         18         19         20
    16  H    0.000000
    17  H    2.476605   0.000000
    18  H    4.307173   2.487106   0.000000
    19  C    7.062005   7.305735   6.291869   0.000000
    20  C    7.305772   7.061828   5.702990   1.414585   0.000000
    21  C    6.653517   6.109888   4.827336   2.415624   1.368418
    22  C    5.583747   5.261599   4.552370   2.801301   2.419049
    23  C    5.261707   5.583567   5.269166   2.419140   2.801093
    24  C    6.109986   6.653394   6.106426   1.368446   2.415507
    25  C    4.538105   5.247027   5.584542   3.723497   4.222125
    26  C    4.147139   4.549943   5.260757   4.838181   5.040664
    27  C    4.549956   4.147117   4.540106   5.040717   4.838081
    28  C    5.247163   4.538045   4.147361   4.222291   3.723454
    29  H    7.848820   8.230211   7.153932   1.094848   2.168539
    30  H    8.230220   7.848555   6.229772   2.168562   1.094842
    31  H    7.153800   6.229831   4.696962   3.416857   2.147594
    32  H    6.229794   7.153582   6.854785   2.147693   3.416840
    33  H    4.710280   5.877978   6.397431   4.064759   4.856333
    34  H    4.000000   4.704633   5.878073   5.819958   6.113452
    35  H    4.704633   4.000000   4.710170   6.113408   5.819744
    36  H    5.878073   4.710170   4.000000   4.856708   4.064984
                   21         22         23         24         25
    21  C    0.000000
    22  C    1.421025   0.000000
    23  C    2.443113   1.410086   0.000000
    24  C    2.801068   2.443277   1.421127   0.000000
    25  C    3.740259   2.443369   1.421166   2.478500   0.000000
    26  C    4.222125   2.801239   2.419043   3.723392   1.368418
    27  C    3.723398   2.419033   2.801059   4.222050   2.415577
    28  C    2.478506   1.421127   2.443277   3.740330   2.801368
    29  H    3.395916   3.895958   3.418418   2.143406   4.618618
    30  H    2.143227   3.418217   3.895749   3.395857   5.316855
    31  H    1.095787   2.173370   3.429759   3.896832   4.613905
    32  H    3.896869   3.429910   2.173467   1.095825   2.702173
    33  H    4.613711   3.429869   2.173416   2.702178   1.095684
    34  H    5.316887   3.895924   3.418415   4.618650   2.143454
    35  H    4.618520   3.418249   3.895666   5.316733   3.395776
    36  H    2.702439   2.173494   3.429884   4.613940   3.897065
                   26         27         28         29         30
    26  C    0.000000
    27  C    1.414587   0.000000
    28  C    2.415766   1.368505   0.000000
    29  H    5.819854   6.113442   5.317024   0.000000
    30  H    6.113351   5.819680   4.618451   2.476999   0.000000
    31  H    4.856550   4.064892   2.702285   4.307171   2.486870
    32  H    4.064715   4.856352   4.613922   2.487222   4.307258
    33  H    2.147617   3.416795   3.897029   4.775919   5.930815
    34  H    1.094878   2.168433   3.395986   6.753072   7.192810
    35  H    2.168406   1.094798   2.143328   7.192800   6.752764
    36  H    3.416953   2.147687   1.095719   5.931168   4.775988
                   31         32         33         34         35
    31  H    0.000000
    32  H    4.992616   0.000000
    33  H    5.566523   2.461600   0.000000
    34  H    5.931008   4.776016   2.487316   0.000000
    35  H    4.776065   5.930745   4.307044   2.476605   0.000000
    36  H    2.462002   5.566694   4.992708   4.307173   2.487106
                   36
    36  H    0.000000
 Stoichiometry    C20H16
 Framework group  CS[X(C20H16)]
 Deg. of freedom    51
 Full point group                 CS      NOp   2
 Largest Abelian subgroup         CS      NOp   2
 Largest concise Abelian subgroup CS      NOp   2
                         Standard orientation:                         
 ---------------------------------------------------------------------
 Center     Atomic      Atomic             Coordinates (Angstroms)
 Number     Number       Type             X           Y           Z
 ---------------------------------------------------------------------
      1          6           0        2.419128   -0.707337    2.000000
      2          6           0        2.419041    0.707248    2.000000
      3          6           0        1.239240    1.400530    2.000000
      4          6           0       -0.000007    0.705133    2.000000
      5          6           0       -0.000011   -0.704953    2.000000
      6          6           0        1.239248   -1.400538    2.000000
      7          6           0       -1.239252   -1.400651    2.000000
      8          6           0       -2.419053   -0.707369    2.000000
      9          6           0       -2.419040    0.707218    2.000000
     10          6           0       -1.239267    1.400717    2.000000
     11          1           0        3.376518   -1.238465    2.000000
     12          1           0        3.376336    1.238534    2.000000
     13          1           0        1.230972    2.496285    2.000000
     14          1           0        1.230814   -2.496330    2.000000
     15          1           0       -1.230786   -2.496302    2.000000
     16          1           0       -3.376554   -1.238359    2.000000
     17          1           0       -3.376428    1.238246    2.000000
     18          1           0       -1.231030    2.496405    2.000000
     19          6           0        2.419128   -0.707337   -2.000000
     20          6           0        2.419041    0.707248   -2.000000
     21          6           0        1.239240    1.400530   -2.000000
     22          6           0       -0.000007    0.705133   -2.000000
     23          6           0       -0.000011   -0.704953   -2.000000
     24          6           0        1.239248   -1.400538   -2.000000
     25          6           0       -1.239252   -1.400651   -2.000000
     26          6           0       -2.419053   -0.707369   -2.000000
     27          6           0       -2.419040    0.707218   -2.000000
     28          6           0       -1.239267    1.400717   -2.000000
     29          1           0        3.376518   -1.238465   -2.000000
     30          1           0        3.376336    1.238534   -2.000000
     31          1           0        1.230972    2.496285   -2.000000
     32          1           0        1.230814   -2.496330   -2.000000
     33          1           0       -1.230786   -2.496302   -2.000000
     34          1           0       -3.376554   -1.238359   -2.000000
     35          1           0       -3.376428    1.238246   -2.000000
     36          1           0       -1.231030    2.496405   -2.000000
 ---------------------------------------------------------------------
 Rotational constants (GHZ):           0.4448122           0.3750999           0.2749845
 Standard basis: 6-31G(d) (6D, 7F)
 There are   166 symmetry adapted cartesian basis functions of A'  symmetry.
 There are   166 symmetry adapted cartesian basis functions of A"  symmetry.
 There are   166 symmetry adapted basis functions of A'  symmetry.
 There are   166 symmetry adapted basis functions of A"  symmetry.
   332 basis functions,   624 primitive gaussians,   332 cartesian basis functions
    68 alpha electrons       68 beta electrons
       nuclear repulsion energy      1418.6733976884 Hartrees.
 NAtoms=   36 NActive=   36 NUniq=   18 SFac= 4.00D+00 NAtFMM=   60 NAOKFM=F Big=F
 Integral buffers will be    131072 words long.
 Raffenetti 2 integral format.
 Two-electron integral symmetry is turned on.
 Nuclear repulsion after empirical dispersion term =     1418.6463913733 Hartrees.
 One-electron integrals computed using PRISM.
 NBasis=   332 RedAO= T EigKep=  2.85D-04  NBF=   166   166
 NBsUse=   332 1.00D-06 EigRej= -1.00D+00 NBFU=   166   166
 ExpMin= 1.61D-01 ExpMax= 3.05D+03 ExpMxC= 4.57D+02 IAcc=3 IRadAn=         5 AccDes= 0.00D+00
 Harris functional with IExCor= 4639 and IRadAn=       5 diagonalized for initial guess.
 HarFok:  IExCor= 4639 AccDes= 0.00D+00 IRadAn=         5 IDoV= 1 UseB2=F ITyADJ=14
 ICtDFT=  3500011 ScaDFX=  1.000000  1.000000  1.000000  1.000000
 FoFCou: FMM=F IPFlag=           0 FMFlag=      100000 FMFlg1=           0
         NFxFlg=           0 DoJE=T BraDBF=F KetDBF=T FulRan=T
         wScrn=  0.000000 ICntrl=       500 IOpCl=  0 I1Cent=   200000004 NGrid=           0
         NMat0=    1 NMatS0=      1 NMatT0=    0 NMatD0=    1 NMtDS0=    0 NMtDT0=    0
 Petite list used in FoFCou.
 Initial guess orbital symmetries:
       Occupied  (A") (A') (A") (A') (A") (A') (A") (A') (A") (A')
                 (A") (A') (A") (A') (A") (A') (A") (A') (A") (A')
                 (A') (A") (A') (A") (A') (A") (A') (A") (A') (A")
                 (A') (A") (A') (A") (A') (A") (A') (A") (A') (A")
                 (A') (A") (A') (A") (A') (A") (A') (A") (A') (A")
                 (A') (A') (A") (A") (A') (A") (A') (A') (A") (A')
                 (A") (A") (A') (A") (A') (A") (A') (A")
       Virtual   (A') (A") (A') (A") (A') (A") (A') (A') (A") (A")
                 (A') (A') (A") (A") (A') (A') (A') (A") (A") (A')
                 (A') (A") (A") (A") (A') (A") (A') (A") (A') (A")
                 (A') (A') (A") (A") (A') (A') (A") (A") (A') (A")
                 (A') (A') (A') (A") (A') (A') (A") (A') (A') (A')
                 (A") (A") (A") (A") (A') (A') (A') (A") (A') (A')
                 (A") (A') (A") (A') (A') (A") (A") (A") (A') (A")
                 (A') (A') (A") (A') (A') (A') (A") (A") (A") (A")
                 (A") (A') (A") (A") (A") (A') (A") (A') (A') (A")
                 (A') (A') (A") (A") (A") (A') (A') (A") (A") (A')
                 (A") (A') (A') (A") (A") (A') (A') (A") (A") (A')
                 (A') (A") (A") (A") (A') (A') (A') (A') (A") (A")
                 (A") (A") (A') (A') (A') (A") (A") (A') (A") (A")
                 (A') (A") (A') (A') (A") (A") (A') (A") (A') (A")
                 (A') (A') (A') (A") (A') (A') (A") (A') (A') (A")
                 (A") (A") (A') (A") (A") (A') (A") (A") (A') (A")
                 (A') (A') (A") (A") (A') (A') (A") (A') (A") (A')
                 (A') (A") (A") (A') (A') (A') (A") (A") (A") (A')
                 (A") (A') (A") (A') (A") (A") (A') (A') (A") (A')
                 (A') (A") (A") (A') (A') (A") (A") (A") (A') (A')
                 (A') (A") (A") (A") (A') (A') (A") (A") (A') (A")
                 (A') (A") (A') (A') (A') (A") (A') (A") (A") (A')
                 (A") (A") (A') (A") (A') (A') (A") (A') (A") (A")
                 (A') (A") (A') (A') (A") (A") (A') (A") (A') (A")
                 (A') (A") (A') (A") (A') (A') (A') (A') (A') (A")
                 (A") (A") (A") (A") (A') (A") (A') (A') (A") (A")
                 (A') (A") (A') (A")
 The electronic state of the initial guess is 1-A'.
 Requested convergence on RMS density matrix=1.00D-08 within 128 cycles.
 Requested convergence on MAX density matrix=1.00D-06.
 Requested convergence on             energy=1.00D-06.
 No special actions if energy rises.
 Integral accuracy reduced to 1.0D-05 until final iterations.
 Initial convergence to 1.0D-05 achieved.  Increase integral accuracy.
 SCF Done:  E(RwB97XD) =  -771.516901212     A.U. after   13 cycles
            NFock= 13  Conv=0.39D-08     -V/T= 2.0097

 **********************************************************************

            Population analysis using the SCF Density.

 **********************************************************************

 Orbital symmetries:
       Occupied  (A") (A') (A") (A') (A") (A') (A") (A') (A") (A')
                 (A") (A') (A") (A') (A") (A') (A") (A') (A") (A')
                 (A') (A") (A') (A") (A') (A") (A') (A") (A') (A")
                 (A') (A") (A') (A") (A') (A") (A') (A") (A') (A")
                 (A') (A") (A') (A") (A') (A") (A') (A") (A') (A")
                 (A') (A') (A") (A") (A') (A") (A') (A') (A") (A')
                 (A") (A") (A') (A") (A') (A") (A') (A")
       Virtual   (A') (A") (A') (A") (A') (A") (A') (A") (A') (A')
                 (A") (A') (A") (A") (A') (A') (A') (A") (A") (A')
                 (A") (A") (A') (A') (A") (A") (A') (A") (A') (A")
                 (A') (A') (A") (A") (A') (A") (A') (A") (A') (A")
                 (A') (A') (A') (A") (A') (A') (A") (A') (A') (A')
                 (A") (A") (A") (A") (A') (A') (A') (A") (A') (A')
                 (A") (A") (A') (A') (A') (A") (A') (A") (A") (A')
                 (A") (A') (A") (A') (A') (A') (A") (A") (A") (A")
                 (A") (A') (A") (A") (A") (A') (A") (A') (A') (A")
                 (A') (A') (A") (A") (A") (A') (A') (A") (A") (A')
                 (A') (A") (A") (A") (A') (A') (A') (A") (A") (A')
                 (A') (A") (A") (A") (A') (A') (A') (A') (A") (A")
                 (A") (A") (A') (A') (A') (A") (A") (A") (A') (A")
                 (A') (A") (A') (A') (A") (A") (A') (A") (A') (A")
                 (A') (A') (A') (A") (A') (A") (A') (A") (A') (A")
                 (A') (A") (A") (A') (A") (A') (A") (A") (A') (A")
                 (A') (A') (A") (A") (A') (A') (A') (A") (A') (A")
                 (A') (A") (A') (A') (A") (A') (A") (A") (A") (A")
                 (A') (A") (A') (A') (A") (A") (A') (A') (A") (A')
                 (A') (A") (A") (A') (A') (A") (A") (A") (A') (A')
                 (A') (A") (A") (A") (A') (A") (A') (A") (A') (A")
                 (A') (A") (A') (A') (A') (A") (A') (A") (A') (A")
                 (A") (A") (A') (A') (A") (A') (A") (A') (A") (A")
                 (A') (A') (A") (A') (A") (A") (A') (A") (A') (A")
                 (A') (A") (A') (A") (A') (A') (A') (A') (A') (A")
                 (A") (A") (A") (A") (A') (A") (A') (A') (A") (A")
                 (A') (A") (A') (A")
 The electronic state is 1-A'.
 Alpha  occ. eigenvalues --  -10.30094 -10.30093 -10.30044 -10.30043 -10.29633
 Alpha  occ. eigenvalues --  -10.29632 -10.29632 -10.29631 -10.29614 -10.29613
 Alpha  occ. eigenvalues --  -10.29611 -10.29610 -10.29563 -10.29562 -10.29561
 Alpha  occ. eigenvalues --  -10.29561 -10.29536 -10.29535 -10.29535 -10.29534
 Alpha  occ. eigenvalues --   -0.96939  -0.96802  -0.91424  -0.91297  -0.86473
 Alpha  occ. eigenvalues --   -0.86348  -0.83147  -0.83033  -0.80872  -0.80761
 Alpha  occ. eigenvalues --   -0.71056  -0.70955  -0.69537  -0.69445  -0.68309
 Alpha  occ. eigenvalues --   -0.68199  -0.59623  -0.59521  -0.58930  -0.58833
 Alpha  occ. eigenvalues --   -0.57427  -0.57342  -0.52730  -0.52610  -0.51844
 Alpha  occ. eigenvalues --   -0.51781  -0.49330  -0.49249  -0.49011  -0.48965
 Alpha  occ. eigenvalues --   -0.48061  -0.47591  -0.47504  -0.46454  -0.44145
 Alpha  occ. eigenvalues --   -0.44075  -0.41222  -0.40701  -0.40651  -0.40372
 Alpha  occ. eigenvalues --   -0.40288  -0.39657  -0.36308  -0.34859  -0.31376
 Alpha  occ. eigenvalues --   -0.30043  -0.28509  -0.27148
 Alpha virt. eigenvalues --    0.03119   0.04532   0.06256   0.07645   0.10650
 Alpha virt. eigenvalues --    0.12255   0.17318   0.18180   0.18567   0.19315
 Alpha virt. eigenvalues --    0.19907   0.20142   0.20179   0.21126   0.24860
 Alpha virt. eigenvalues --    0.25249   0.25833   0.25959   0.26290   0.26374
 Alpha virt. eigenvalues --    0.26818   0.27195   0.29042   0.29254   0.29990
 Alpha virt. eigenvalues --    0.30548   0.32798   0.33348   0.37157   0.37608
 Alpha virt. eigenvalues --    0.39454   0.39874   0.39957   0.40370   0.40548
 Alpha virt. eigenvalues --    0.41384   0.41503   0.41964   0.44378   0.45107
 Alpha virt. eigenvalues --    0.52249   0.55516   0.56116   0.57103   0.58959
 Alpha virt. eigenvalues --    0.59167   0.59875   0.61039   0.61548   0.62216
 Alpha virt. eigenvalues --    0.62533   0.62751   0.62780   0.63014   0.63199
 Alpha virt. eigenvalues --    0.63991   0.64104   0.66219   0.67088   0.67579
 Alpha virt. eigenvalues --    0.68621   0.68623   0.68820   0.68928   0.69410
 Alpha virt. eigenvalues --    0.70879   0.71130   0.71330   0.71638   0.71718
 Alpha virt. eigenvalues --    0.71778   0.71887   0.72530   0.73898   0.74826
 Alpha virt. eigenvalues --    0.74925   0.75839   0.78159   0.79034   0.79460
 Alpha virt. eigenvalues --    0.80406   0.80877   0.82755   0.85069   0.86013
 Alpha virt. eigenvalues --    0.88356   0.90733   0.91658   0.92240   0.92697
 Alpha virt. eigenvalues --    0.92954   0.93047   0.93290   0.93999   0.94620
 Alpha virt. eigenvalues --    0.94687   0.94939   0.95814   0.96060   0.98267
 Alpha virt. eigenvalues --    0.98363   0.98478   1.00598   1.00918   1.01617
 Alpha virt. eigenvalues --    1.01782   1.02491   1.04825   1.07580   1.07943
 Alpha virt. eigenvalues --    1.08243   1.08518   1.09423   1.11761   1.12275
 Alpha virt. eigenvalues --    1.12323   1.13567   1.17205   1.19222   1.19562
 Alpha virt. eigenvalues --    1.19797   1.22244   1.22537   1.27289   1.28225
 Alpha virt. eigenvalues --    1.29312   1.31531   1.32407   1.33030   1.33084
 Alpha virt. eigenvalues --    1.34272   1.34399   1.34724   1.38369   1.41067
 Alpha virt. eigenvalues --    1.43634   1.48232   1.48422   1.49801   1.50165
 Alpha virt. eigenvalues --    1.50341   1.52596   1.54257   1.54918   1.55967
 Alpha virt. eigenvalues --    1.57381   1.57891   1.57942   1.58345   1.58431
 Alpha virt. eigenvalues --    1.58770   1.58896   1.59064   1.59942   1.59993
 Alpha virt. eigenvalues --    1.60891   1.62174   1.66508   1.80889   1.82624
 Alpha virt. eigenvalues --    1.85027   1.87002   1.87224   1.89561   1.92651
 Alpha virt. eigenvalues --    1.96290   1.96977   1.97470   1.97749   1.99276
 Alpha virt. eigenvalues --    2.01568   2.02028   2.03179   2.03205   2.03375
 Alpha virt. eigenvalues --    2.04558   2.05589   2.06275   2.06466   2.07268
 Alpha virt. eigenvalues --    2.07641   2.11010   2.11528   2.13996   2.14029
 Alpha virt. eigenvalues --    2.15937   2.20074   2.23362   2.24152   2.24364
 Alpha virt. eigenvalues --    2.28097   2.28491   2.28791   2.29095   2.29973
 Alpha virt. eigenvalues --    2.31111   2.31600   2.32504   2.35384   2.37775
 Alpha virt. eigenvalues --    2.38008   2.38282   2.41371   2.41396   2.41609
 Alpha virt. eigenvalues --    2.42064   2.42094   2.43511   2.47521   2.49345
 Alpha virt. eigenvalues --    2.49523   2.54096   2.68532   2.69547   2.71295
 Alpha virt. eigenvalues --    2.71378   2.71729   2.72018   2.72174   2.72851
 Alpha virt. eigenvalues --    2.73664   2.75766   2.78002   2.78076   2.78167
 Alpha virt. eigenvalues --    2.83271   2.84254   2.87019   2.88883   2.91012
 Alpha virt. eigenvalues --    2.92945   2.92995   2.94304   2.98126   2.98502
 Alpha virt. eigenvalues --    2.98853   3.04085   3.05808   3.16701   3.22773
 Alpha virt. eigenvalues --    3.45814   3.48180   3.58033   3.59582   4.17476
 Alpha virt. eigenvalues --    4.17913   4.19678   4.19690   4.22971   4.23045
 Alpha virt. eigenvalues --    4.24266   4.27009   4.27562   4.30092   4.34055
 Alpha virt. eigenvalues --    4.40277   4.43369   4.48688   4.49255   4.53924
 Alpha virt. eigenvalues --    4.59555   4.66459   4.88829   4.95182
          Condensed to atoms (all electrons):
               1          2          3          4          5          6
     1  C    4.899348   0.503060  -0.027621  -0.034658  -0.016022   0.544796
     2  C    0.503060   4.899333   0.544811  -0.016003  -0.034665  -0.027627
     3  C   -0.027621   0.544811   5.052417   0.466239  -0.033546  -0.063504
     4  C   -0.034658  -0.016003   0.466239   4.643875   0.550048  -0.033542
     5  C   -0.016022  -0.034665  -0.033546   0.550048   4.644019   0.466236
     6  C    0.544796  -0.027627  -0.063504  -0.033542   0.466236   5.052397
     7  C    0.007598  -0.000669   0.013375  -0.033551   0.466220  -0.083833
     8  C   -0.000374   0.000077  -0.000669  -0.034652  -0.016028   0.007599
     9  C    0.000077  -0.000374   0.007599  -0.016006  -0.034655  -0.000669
    10  C   -0.000669   0.007601  -0.083872   0.466200  -0.033570   0.013373
    11  H    0.365224  -0.036556   0.003393   0.000900   0.002051  -0.031948
    12  H   -0.036562   0.365223  -0.031956   0.002053   0.000900   0.003395
    13  H    0.003627  -0.038566   0.363835  -0.038630   0.003493   0.000436
    14  H   -0.038559   0.003626   0.000436   0.003491  -0.038627   0.363829
    15  H    0.000237   0.000010  -0.000151   0.003493  -0.038626  -0.005522
    16  H    0.000003  -0.000000   0.000009   0.000899   0.002051  -0.000165
    17  H   -0.000000   0.000003  -0.000165   0.002053   0.000900   0.000009
    18  H    0.000010   0.000236  -0.005519  -0.038621   0.003492  -0.000151
    19  C    0.000377   0.000117  -0.000042  -0.000004  -0.000080   0.000157
    20  C    0.000117   0.000377   0.000157  -0.000080  -0.000004  -0.000042
    21  C   -0.000042   0.000157   0.000674  -0.000002  -0.000003  -0.000063
    22  C   -0.000004  -0.000080  -0.000002   0.000276   0.000041  -0.000003
    23  C   -0.000080  -0.000004  -0.000003   0.000041   0.000276  -0.000001
    24  C    0.000157  -0.000042  -0.000063  -0.000003  -0.000001   0.000674
    25  C   -0.000007   0.000000   0.000001  -0.000003  -0.000001  -0.000044
    26  C    0.000000   0.000000   0.000000  -0.000004  -0.000080  -0.000007
    27  C    0.000000   0.000000  -0.000007  -0.000080  -0.000004   0.000000
    28  C    0.000000  -0.000007  -0.000044  -0.000002  -0.000003   0.000001
    29  H    0.000025  -0.000002  -0.000000  -0.000000  -0.000000  -0.000005
    30  H   -0.000002   0.000025  -0.000005  -0.000000  -0.000000  -0.000000
    31  H   -0.000001   0.000003   0.000047  -0.000003   0.000000  -0.000000
    32  H    0.000003  -0.000001  -0.000000   0.000000  -0.000003   0.000047
    33  H   -0.000000   0.000000   0.000000   0.000000  -0.000003  -0.000002
    34  H    0.000000   0.000000   0.000000  -0.000000  -0.000000  -0.000000
    35  H    0.000000   0.000000  -0.000000  -0.000000  -0.000000   0.000000
    36  H    0.000000  -0.000000  -0.000002  -0.000003   0.000000   0.000000
               7          8          9         10         11         12
     1  C    0.007598  -0.000374   0.000077  -0.000669   0.365224  -0.036562
     2  C   -0.000669   0.000077  -0.000374   0.007601  -0.036556   0.365223
     3  C    0.013375  -0.000669   0.007599  -0.083872   0.003393  -0.031956
     4  C   -0.033551  -0.034652  -0.016006   0.466200   0.000900   0.002053
     5  C    0.466220  -0.016028  -0.034655  -0.033570   0.002051   0.000900
     6  C   -0.083833   0.007599  -0.000669   0.013373  -0.031948   0.003395
     7  C    5.052325   0.544808  -0.027627  -0.063475  -0.000165   0.000009
     8  C    0.544808   4.899345   0.503052  -0.027623   0.000003  -0.000000
     9  C   -0.027627   0.503052   4.899362   0.544791  -0.000000   0.000003
    10  C   -0.063475  -0.027623   0.544791   5.052440   0.000009  -0.000165
    11  H   -0.000165   0.000003  -0.000000   0.000009   0.543560  -0.003672
    12  H    0.000009  -0.000000   0.000003  -0.000165  -0.003672   0.543601
    13  H   -0.000151   0.000010   0.000237  -0.005522  -0.000149  -0.003859
    14  H   -0.005521   0.000237   0.000010  -0.000151  -0.003854  -0.000149
    15  H    0.363844  -0.038565   0.003627   0.000436  -0.000009  -0.000000
    16  H   -0.031950   0.365224  -0.036566   0.003394  -0.000000  -0.000000
    17  H    0.003396  -0.036570   0.365229  -0.031959  -0.000000  -0.000000
    18  H    0.000436   0.003626  -0.038559   0.363843  -0.000000  -0.000009
    19  C   -0.000007   0.000000   0.000000   0.000000   0.000025  -0.000002
    20  C    0.000000   0.000000   0.000000  -0.000007  -0.000002   0.000025
    21  C    0.000001   0.000000  -0.000007  -0.000044  -0.000000  -0.000005
    22  C   -0.000003  -0.000004  -0.000080  -0.000002  -0.000000  -0.000000
    23  C   -0.000001  -0.000080  -0.000004  -0.000003  -0.000000  -0.000000
    24  C   -0.000044  -0.000007   0.000000   0.000001  -0.000005  -0.000000
    25  C    0.000674   0.000157  -0.000042  -0.000063  -0.000000   0.000000
    26  C    0.000157   0.000377   0.000117  -0.000042   0.000000   0.000000
    27  C   -0.000042   0.000117   0.000377   0.000157   0.000000   0.000000
    28  C   -0.000063  -0.000042   0.000157   0.000675   0.000000  -0.000000
    29  H   -0.000000   0.000000   0.000000   0.000000   0.000023  -0.000001
    30  H    0.000000   0.000000   0.000000  -0.000000  -0.000001   0.000023
    31  H    0.000000   0.000000  -0.000000  -0.000002  -0.000000  -0.000001
    32  H   -0.000002  -0.000000   0.000000   0.000000  -0.000001  -0.000000
    33  H    0.000047   0.000003  -0.000001  -0.000000  -0.000000  -0.000000
    34  H   -0.000005   0.000025  -0.000002  -0.000000  -0.000000   0.000000
    35  H   -0.000000  -0.000002   0.000025  -0.000005   0.000000  -0.000000
    36  H   -0.000000  -0.000001   0.000003   0.000047  -0.000000  -0.000000
              13         14         15         16         17         18
     1  C    0.003627  -0.038559   0.000237   0.000003  -0.000000   0.000010
     2  C   -0.038566   0.003626   0.000010  -0.000000   0.000003   0.000236
     3  C    0.363835   0.000436  -0.000151   0.000009  -0.000165  -0.005519
     4  C   -0.038630   0.003491   0.003493   0.000899   0.002053  -0.038621
     5  C    0.003493  -0.038627  -0.038626   0.002051   0.000900   0.003492
     6  C    0.000436   0.363829  -0.005522  -0.000165   0.000009  -0.000151
     7  C   -0.000151  -0.005521   0.363844  -0.031950   0.003396   0.000436
     8  C    0.000010   0.000237  -0.038565   0.365224  -0.036570   0.003626
     9  C    0.000237   0.000010   0.003627  -0.036566   0.365229  -0.038559
    10  C   -0.005522  -0.000151   0.000436   0.003394  -0.031959   0.363843
    11  H   -0.000149  -0.003854  -0.000009  -0.000000  -0.000000  -0.000000
    12  H   -0.003859  -0.000149  -0.000000  -0.000000  -0.000000  -0.000009
    13  H    0.548371   0.000015   0.000002  -0.000000  -0.000009   0.005223
    14  H    0.000015   0.548357   0.005225  -0.000009  -0.000000   0.000002
    15  H    0.000002   0.005225   0.548323  -0.003853  -0.000149   0.000015
    16  H   -0.000000  -0.000009  -0.003853   0.543586  -0.003676  -0.000149
    17  H   -0.000009  -0.000000  -0.000149  -0.003676   0.543608  -0.003854
    18  H    0.005223   0.000002   0.000015  -0.000149  -0.003854   0.548305
    19  C   -0.000001   0.000003  -0.000000   0.000000   0.000000   0.000000
    20  C    0.000003  -0.000001   0.000000   0.000000   0.000000  -0.000000
    21  C    0.000047  -0.000000   0.000000   0.000000  -0.000000  -0.000002
    22  C   -0.000003   0.000000   0.000000  -0.000000  -0.000000  -0.000003
    23  C    0.000000  -0.000003  -0.000003  -0.000000  -0.000000   0.000000
    24  C   -0.000000   0.000047  -0.000002  -0.000000   0.000000   0.000000
    25  C    0.000000  -0.000002   0.000047  -0.000005  -0.000000  -0.000000
    26  C    0.000000  -0.000000   0.000003   0.000025  -0.000002  -0.000001
    27  C   -0.000000   0.000000  -0.000001  -0.000002   0.000025   0.000003
    28  C   -0.000002   0.000000  -0.000000  -0.000000  -0.000005   0.000047
    29  H   -0.000000  -0.000001  -0.000000  -0.000000   0.000000  -0.000000
    30  H   -0.000001  -0.000000  -0.000000   0.000000  -0.000000  -0.000000
    31  H    0.000023   0.000000   0.000000  -0.000000  -0.000000   0.000001
    32  H    0.000000   0.000023   0.000001  -0.000000  -0.000000   0.000000
    33  H    0.000000   0.000001   0.000023  -0.000001  -0.000000   0.000000
    34  H   -0.000000  -0.000000  -0.000001   0.000023  -0.000001  -0.000000
    35  H   -0.000000  -0.000000  -0.000000  -0.000001   0.000023  -0.000001
    36  H    0.000001   0.000000   0.000000  -0.000000  -0.000001   0.000023
              19         20         21         22         23         24
     1  C    0.000377   0.000117  -0.000042  -0.000004  -0.000080   0.000157
     2  C    0.000117   0.000377   0.000157  -0.000080  -0.000004  -0.000042
     3  C   -0.000042   0.000157   0.000674  -0.000002  -0.000003  -0.000063
     4  C   -0.000004  -0.000080  -0.000002   0.000276   0.000041  -0.000003
     5  C   -0.000080  -0.000004  -0.000003   0.000041   0.000276  -0.000001
     6  C    0.000157  -0.000042  -0.000063  -0.000003  -0.000001   0.000674
     7  C   -0.000007   0.000000   0.000001  -0.000003  -0.000001  -0.000044
     8  C    0.000000   0.000000   0.000000  -0.000004  -0.000080  -0.000007
     9  C    0.000000   0.000000  -0.000007  -0.000080  -0.000004   0.000000
    10  C    0.000000  -0.000007  -0.000044  -0.000002  -0.000003   0.000001
    11  H    0.000025  -0.000002  -0.000000  -0.000000  -0.000000  -0.000005
    12  H   -0.000002   0.000025  -0.000005  -0.000000  -0.000000  -0.000000
    13  H   -0.000001   0.000003   0.000047  -0.000003   0.000000  -0.000000
    14  H    0.000003  -0.000001  -0.000000   0.000000  -0.000003   0.000047
    15  H   -0.000000   0.000000   0.000000   0.000000  -0.000003  -0.000002
    16  H    0.000000   0.000000   0.000000  -0.000000  -0.000000  -0.000000
    17  H    0.000000   0.000000  -0.000000  -0.000000  -0.000000   0.000000
    18  H    0.000000  -0.000000  -0.000002  -0.000003   0.000000   0.000000
    19  C    4.899348   0.503060  -0.027621  -0.034658  -0.016022   0.544796
    20  C    0.503060   4.899333   0.544811  -0.016003  -0.034665  -0.027627
    21  C   -0.027621   0.544811   5.052417   0.466239  -0.033546  -0.063504
    22  C   -0.034658  -0.016003   0.466239   4.643875   0.550048  -0.033542
    23  C   -0.016022  -0.034665  -0.033546   0.550048   4.644019   0.466236
    24  C    0.544796  -0.027627  -0.063504  -0.033542   0.466236   5.052397
    25  C    0.007598  -0.000669   0.013375  -0.033551   0.466220  -0.083833
    26  C   -0.000374   0.000077  -0.000669  -0.034652  -0.016028   0.007599
    27  C    0.000077  -0.000374   0.007599  -0.016006  -0.034655  -0.000669
    28  C   -0.000669   0.007601  -0.083872   0.466200  -0.033570   0.013373
    29  H    0.365224  -0.036556   0.003393   0.000900   0.002051  -0.031948
    30  H   -0.036562   0.365223  -0.031956   0.002053   0.000900   0.003395
    31  H    0.003627  -0.038566   0.363835  -0.038630   0.003493   0.000436
    32  H   -0.038559   0.003626   0.000436   0.003491  -0.038627   0.363829
    33  H    0.000237   0.000010  -0.000151   0.003493  -0.038626  -0.005522
    34  H    0.000003  -0.000000   0.000009   0.000899   0.002051  -0.000165
    35  H   -0.000000   0.000003  -0.000165   0.002053   0.000900   0.000009
    36  H    0.000010   0.000236  -0.005519  -0.038621   0.003492  -0.000151
              25         26         27         28         29         30
     1  C   -0.000007   0.000000   0.000000   0.000000   0.000025  -0.000002
     2  C    0.000000   0.000000   0.000000  -0.000007  -0.000002   0.000025
     3  C    0.000001   0.000000  -0.000007  -0.000044  -0.000000  -0.000005
     4  C   -0.000003  -0.000004  -0.000080  -0.000002  -0.000000  -0.000000
     5  C   -0.000001  -0.000080  -0.000004  -0.000003  -0.000000  -0.000000
     6  C   -0.000044  -0.000007   0.000000   0.000001  -0.000005  -0.000000
     7  C    0.000674   0.000157  -0.000042  -0.000063  -0.000000   0.000000
     8  C    0.000157   0.000377   0.000117  -0.000042   0.000000   0.000000
     9  C   -0.000042   0.000117   0.000377   0.000157   0.000000   0.000000
    10  C   -0.000063  -0.000042   0.000157   0.000675   0.000000  -0.000000
    11  H   -0.000000   0.000000   0.000000   0.000000   0.000023  -0.000001
    12  H    0.000000   0.000000   0.000000  -0.000000  -0.000001   0.000023
    13  H    0.000000   0.000000  -0.000000  -0.000002  -0.000000  -0.000001
    14  H   -0.000002  -0.000000   0.000000   0.000000  -0.000001  -0.000000
    15  H    0.000047   0.000003  -0.000001  -0.000000  -0.000000  -0.000000
    16  H   -0.000005   0.000025  -0.000002  -0.000000  -0.000000   0.000000
    17  H   -0.000000  -0.000002   0.000025  -0.000005   0.000000  -0.000000
    18  H   -0.000000  -0.000001   0.000003   0.000047  -0.000000  -0.000000
    19  C    0.007598  -0.000374   0.000077  -0.000669   0.365224  -0.036562
    20  C   -0.000669   0.000077  -0.000374   0.007601  -0.036556   0.365223
    21  C    0.013375  -0.000669   0.007599  -0.083872   0.003393  -0.031956
    22  C   -0.033551  -0.034652  -0.016006   0.466200   0.000900   0.002053
    23  C    0.466220  -0.016028  -0.034655  -0.033570   0.002051   0.000900
    24  C   -0.083833   0.007599  -0.000669   0.013373  -0.031948   0.003395
    25  C    5.052325   0.544808  -0.027627  -0.063475  -0.000165   0.000009
    26  C    0.544808   4.899345   0.503052  -0.027623   0.000003  -0.000000
    27  C   -0.027627   0.503052   4.899362   0.544791  -0.000000   0.000003
    28  C   -0.063475  -0.027623   0.544791   5.052440   0.000009  -0.000165
    29  H   -0.000165   0.000003  -0.000000   0.000009   0.543560  -0.003672
    30  H    0.000009  -0.000000   0.000003  -0.000165  -0.003672   0.543601
    31  H   -0.000151   0.000010   0.000237  -0.005522  -0.000149  -0.003859
    32  H   -0.005521   0.000237   0.000010  -0.000151  -0.003854  -0.000149
    33  H    0.363844  -0.038565   0.003627   0.000436  -0.000009  -0.000000
    34  H   -0.031950   0.365224  -0.036566   0.003394  -0.000000  -0.000000
    35  H    0.003396  -0.036570   0.365229  -0.031959  -0.000000  -0.000000
    36  H    0.000436   0.003626  -0.038559   0.363843  -0.000000  -0.000009
              31         32         33         34         35         36
     1  C   -0.000001   0.000003  -0.000000   0.000000   0.000000   0.000000
     2  C    0.000003  -0.000001   0.000000   0.000000   0.000000  -0.000000
     3  C    0.000047  -0.000000   0.000000   0.000000  -0.000000  -0.000002
     4  C   -0.000003   0.000000   0.000000  -0.000000  -0.000000  -0.000003
     5  C    0.000000  -0.000003  -0.000003  -0.000000  -0.000000   0.000000
     6  C   -0.000000   0.000047  -0.000002  -0.000000   0.000000   0.000000
     7  C    0.000000  -0.000002   0.000047  -0.000005  -0.000000  -0.000000
     8  C    0.000000  -0.000000   0.000003   0.000025  -0.000002  -0.000001
     9  C   -0.000000   0.000000  -0.000001  -0.000002   0.000025   0.000003
    10  C   -0.000002   0.000000  -0.000000  -0.000000  -0.000005   0.000047
    11  H   -0.000000  -0.000001  -0.000000  -0.000000   0.000000  -0.000000
    12  H   -0.000001  -0.000000  -0.000000   0.000000  -0.000000  -0.000000
    13  H    0.000023   0.000000   0.000000  -0.000000  -0.000000   0.000001
    14  H    0.000000   0.000023   0.000001  -0.000000  -0.000000   0.000000
    15  H    0.000000   0.000001   0.000023  -0.000001  -0.000000   0.000000
    16  H   -0.000000  -0.000000  -0.000001   0.000023  -0.000001  -0.000000
    17  H   -0.000000  -0.000000  -0.000000  -0.000001   0.000023  -0.000001
    18  H    0.000001   0.000000   0.000000  -0.000000  -0.000001   0.000023
    19  C    0.003627  -0.038559   0.000237   0.000003  -0.000000   0.000010
    20  C   -0.038566   0.003626   0.000010  -0.000000   0.000003   0.000236
    21  C    0.363835   0.000436  -0.000151   0.000009  -0.000165  -0.005519
    22  C   -0.038630   0.003491   0.003493   0.000899   0.002053  -0.038621
    23  C    0.003493  -0.038627  -0.038626   0.002051   0.000900   0.003492
    24  C    0.000436   0.363829  -0.005522  -0.000165   0.000009  -0.000151
    25  C   -0.000151  -0.005521   0.363844  -0.031950   0.003396   0.000436
    26  C    0.000010   0.000237  -0.038565   0.365224  -0.036570   0.003626
    27  C    0.000237   0.000010   0.003627  -0.036566   0.365229  -0.038559
    28  C   -0.005522  -0.000151   0.000436   0.003394  -0.031959   0.363843
    29  H   -0.000149  -0.003854  -0.000009  -0.000000  -0.000000  -0.000000
    30  H   -0.003859  -0.000149  -0.000000  -0.000000  -0.000000  -0.000009
    31  H    0.548371   0.000015   0.000002  -0.000000  -0.000009   0.005223
    32  H    0.000015   0.548357   0.005225  -0.000009  -0.000000   0.000002
    33  H    0.000002   0.005225   0.548323  -0.003853  -0.000149   0.000015
    34  H   -0.000000  -0.000009  -0.003853   0.543586  -0.003676  -0.000149
    35  H   -0.000009  -0.000000  -0.000149  -0.003676   0.543608  -0.003854
    36  H    0.005223   0.000002   0.000015  -0.000149  -0.003854   0.548305
 Mulliken charges:
               1
     1  C   -0.170059
     2  C   -0.170063
     3  C   -0.205825
     4  C    0.106281
     5  C    0.106198
     6  C   -0.205820
     7  C   -0.205782
     8  C   -0.170044
     9  C   -0.170076
    10  C   -0.205793
    11  H    0.161175
    12  H    0.161151
    13  H    0.161570
    14  H    0.161573
    15  H    0.161597
    16  H    0.161164
    17  H    0.161147
    18  H    0.161607
    19  C   -0.170059
    20  C   -0.170063
    21  C   -0.205825
    22  C    0.106281
    23  C    0.106198
    24  C   -0.205820
    25  C   -0.205782
    26  C   -0.170044
    27  C   -0.170076
    28  C   -0.205793
    29  H    0.161175
    30  H    0.161151
    31  H    0.161570
    32  H    0.161573
    33  H    0.161597
    34  H    0.161164
    35  H    0.161147
    36  H    0.161607
 Sum of Mulliken charges =  -0.00000
 Mulliken charges with hydrogens summed into heavy atoms:
               1
     1  C   -0.008884
     2  C   -0.008912
     3  C   -0.044256
     4  C    0.106281
     5  C    0.106198
     6  C   -0.044247
     7  C   -0.044185
     8  C   -0.008880
     9  C   -0.008929
    10  C   -0.044186
    19  C   -0.008884
    20  C   -0.008912
    21  C   -0.044256
    22  C    0.106281
    23  C    0.106198
    24  C   -0.044247
    25  C   -0.044185
    26  C   -0.008880
    27  C   -0.008929
    28  C   -0.044186
 Electronic spatial extent (au):  <R**2>=           4507.9836
 Charge=             -0.0000 electrons
 Dipole moment (field-independent basis, Debye):
    X=             -0.0003    Y=             -0.0001    Z=             -0.0000  Tot=              0.0004
 Quadrupole moment (field-independent basis, Debye-Ang):
   XX=           -100.7332   YY=           -100.9424   ZZ=           -125.9337
   XY=             -0.0001   XZ=              0.0000   YZ=             -0.0000
 Traceless Quadrupole moment (field-independent basis, Debye-Ang):
   XX=              8.4699   YY=              8.2607   ZZ=            -16.7306
   XY=             -0.0001   XZ=              0.0000   YZ=             -0.0000
 Octapole moment (field-independent basis, Debye-Ang**2):
  XXX=             -0.0035  YYY=              0.0028  ZZZ=             -0.0000  XYY=             -0.0000
  XXY=             -0.0032  XXZ=              0.0000  XZZ=             -0.0015  YZZ=             -0.0000
  YYZ=              0.0000  XYZ=              0.0000
 Hexadecapole moment (field-independent basis, Debye-Ang**3):
 XXXX=          -2109.7603 YYYY=           -938.7063 ZZZZ=          -3139.5474 XXXY=              0.0002
 XXXZ=             -0.0000 YYYX=             -0.0030 YYYZ=             -0.0000 ZZZX=              0.0000
 ZZZY=             -0.0000 XXYY=           -520.9137 XXZZ=           -865.2452 YYZZ=           -619.1104
 XXYZ=              0.0000 YYXZ=              0.0000 ZZXY=              0.0006
 N-N= 1.418646391373D+03 E-N=-4.624115244955D+03  KE= 7.640806894852D+02
 Symmetry A'   KE= 3.814744173872D+02
 Symmetry A"   KE= 3.826062720979D+02
 1\1\GINC-PADAWAN-X570S-UD\SP\RwB97XD\6-31G(d)\C20H16\PADAWAN\30-May-20
 22\0\\#n wB97xd/6-31G(d) SP\\Title\\0,1\C,0,2.4044,0.7559,0.\C,0,2.432
 8,-0.6584,0.\C,0,1.2672,-1.3753,0.\C,0,0.0142,-0.705,0.\C,0,-0.0142,0.
 7048,0.\C,0,1.2108,1.4252,0.\C,0,-1.2672,1.3754,0.\C,0,-2.4328,0.6585,
 0.\C,0,-2.4043,-0.7558,0.\C,0,-1.2108,-1.4254,0.\H,0,3.3509,1.3062,0.\
 H,0,3.4006,-1.1703,0.\H,0,1.281,-2.471,0.\H,0,1.1803,2.5206,0.\H,0,-1.
 2808,2.471,0.\H,0,-3.4008,1.1701,0.\H,0,-3.3508,-1.306,0.\H,0,-1.1805,
 -2.5207,0.\C,0,2.4044,0.7559,4.\C,0,2.4328,-0.6584,4.\C,0,1.2672,-1.37
 53,4.\C,0,0.0142,-0.705,4.\C,0,-0.0142,0.7048,4.\C,0,1.2108,1.4252,4.\
 C,0,-1.2672,1.3754,4.\C,0,-2.4328,0.6585,4.\C,0,-2.4043,-0.7558,4.\C,0
 ,-1.2108,-1.4254,4.\H,0,3.3509,1.3062,4.\H,0,3.4006,-1.1703,4.\H,0,1.2
 81,-2.471,4.\H,0,1.1803,2.5206,4.\H,0,-1.2808,2.471,4.\H,0,-3.4008,1.1
 701,4.\H,0,-3.3508,-1.306,4.\H,0,-1.1805,-2.5207,4.\\Version=EM64L-G16
 RevB.01\State=1-A'\HF=-771.5169012\RMSD=3.887e-09\Dipole=-0.0001374,0.
 0000361,0.\Quadrupole=6.2970905,6.1417006,-12.4387911,0.0032346,0.,0.\
 PG=CS [X(C20H16)]\\@


 One man practicing sportsmanship is far better than 50 preaching it.
 -- Knute K. Rockne
 Job cpu time:       0 days  0 hours  7 minutes 44.2 seconds.
 Elapsed time:       0 days  0 hours  0 minutes 15.6 seconds.
 File lengths (MBytes):  RWF=     66 Int=      0 D2E=      0 Chk=      8 Scr=      1
 Normal termination of Gaussian 16 at Mon May 30 06:37:13 2022.
